    -----------------------------------------------------------------------
          Psi4: An Open-Source Ab Initio Electronic Structure Package
                              Psi4 (no tag) Driver

                          Git: Rev {detached?}  

    J. M. Turney, A. C. Simmonett, R. M. Parrish, E. G. Hohenstein,
    F. A. Evangelista, J. T. Fermann, B. J. Mintz, L. A. Burns, J. J. Wilke,
    M. L. Abrams, N. J. Russ, M. L. Leininger, C. L. Janssen, E. T. Seidl,
    W. D. Allen, H. F. Schaefer, R. A. King, E. F. Valeev, C. D. Sherrill,
    and T. D. Crawford, WIREs Comput. Mol. Sci. 2, 556-565 (2012)
    (doi: 10.1002/wcms.93)

                         Additional Contributions by
    A. E. DePrince, M. Saitow, U. Bozkaya, A. Yu. Sokolov
    -----------------------------------------------------------------------


    Psi4 started on: Tue Jul  5 17:59:15 2016

    Process ID:   3721
    PSI4DATADIR: /export131/home/mjharvey/miniconda3/share
    Memory level set to 256.000 MB

  ==> Input File <==

--------------------------------------------------------------------------
set {
	reference rhf
	basis 6-31G*
}


set_num_threads( 1 )
memory 2 gb

molecule MOL {
0 1

H	 -3.453543	 1.095407	 1.122557
O	 -3.601255	 1.807587	 1.727579
C	 -4.840244	 1.636041	 2.367526
C	 -4.833791	 0.512971	 3.398738
H	 -5.052642	 2.578786	 2.855167
H	 -5.627797	 1.467001	 1.634064
C	 -3.639899	 0.553624	 4.355732
H	 -5.758960	 0.561413	 3.967141
H	 -4.838074	 -0.436517	 2.865990
C	 -2.312059	 0.245546	 3.658059
H	 -3.801737	 -0.159715	 5.159052
H	 -3.580084	 1.538872	 4.818386
C	 -2.087810	 0.996018	 2.340165
H	 -1.491112	 0.461620	 4.339385
H	 -2.266020	 -0.822873	 3.457904
C	 -3.034785	 0.600176	 1.203932
H	 -2.200619	 2.061381	 2.530142
H	 -1.057580	 0.854701	 2.016911
C	 -4.465221	 1.099239	 1.418936
H	 -3.044660	 -0.484477	 1.106250
H	 -2.666261	 0.987989	 0.257311
C	 -5.411106	 0.710962	 0.283063
H	 -4.847259	 0.703375	 2.357459
H	 -4.456195	 2.181939	 1.526468
H	 -5.467273	 -0.368187	 0.171231
H	 -6.416738	 1.077069	 0.465559
H	 -5.076338	 1.123259	 -0.664726

	symmetry c1
}
set optking {
	frozen_dihedral = ("
		14 10 7 4,
		14 10 13 16,
		10 7 4 8,
		8 4 3 2,
		20 16 19 22,
		4 3 2 1
	")
}

ee = energy('scf')
oeprop('DIPOLE', 'QUADRUPOLE', 'MULLIKEN_CHARGES')
f=open( 'psi4out.xyz', 'w' )
f.write( "27  " )
f.write( str(ee) + "\n" )
f.write( MOL.save_string_xyz() )
f.close()
--------------------------------------------------------------------------

  Memory set to   2.000 GiB by Python script.

*** tstart() called on cx1-3-4-2.cx1.hpc.ic.ac.uk
*** at Tue Jul  5 17:59:16 2016


         ---------------------------------------------------------
                                   SCF
            by Justin Turney, Rob Parrish, and Andy Simmonett
                              RHF Reference
                        1 Threads,   2000 MiB Core
         ---------------------------------------------------------

  ==> Geometry <==

    Molecular point group: c1
    Full point group: C1

    Geometry (in Angstrom), charge = 0, multiplicity = 1:

       Center              X                  Y                   Z               Mass       
    ------------   -----------------  -----------------  -----------------  -----------------
           H          0.363701397857     0.175590593839    -1.153876652593     1.007825032070
           O          0.215989397857     0.887770593839    -0.548854652593    15.994914619560
           C         -1.022999602143     0.716224593839     0.091092347407    12.000000000000
           C         -1.016546602143    -0.406845406161     1.122304347407    12.000000000000
           H         -1.235397602143     1.658969593839     0.578733347407     1.007825032070
           H         -1.810552602143     0.547184593839    -0.642369652593     1.007825032070
           C          0.177345397857    -0.366192406161     2.079298347407    12.000000000000
           H         -1.941715602143    -0.358403406161     1.690707347407     1.007825032070
           H         -1.020829602143    -1.356333406161     0.589556347407     1.007825032070
           C          1.505185397857    -0.674270406161     1.381625347407    12.000000000000
           H          0.015507397857    -1.079531406161     2.882618347407     1.007825032070
           H          0.237160397857     0.619055593839     2.541952347407     1.007825032070
           C          1.729434397857     0.076201593839     0.063731347407    12.000000000000
           H          2.326132397857    -0.458196406161     2.062951347407     1.007825032070
           H          1.551224397857    -1.742689406161     1.181470347407     1.007825032070
           C          0.782459397857    -0.319640406161    -1.072501652593    12.000000000000
           H          1.616625397857     1.141564593839     0.253708347407     1.007825032070
           H          2.759664397857    -0.065115406161    -0.259522652593     1.007825032070
           C         -0.647976602143     0.179422593839    -0.857497652593    12.000000000000
           H          0.772584397857    -1.404293406161    -1.170183652593     1.007825032070
           H          1.150983397857     0.068172593839    -2.019122652593     1.007825032070
           C         -1.593861602143    -0.208854406161    -1.993370652593    12.000000000000
           H         -1.030014602143    -0.216441406161     0.081025347407     1.007825032070
           H         -0.638950602143     1.262122593839    -0.749965652593     1.007825032070
           H         -1.650028602143    -1.288003406161    -2.105202652593     1.007825032070
           H         -2.599493602143     0.157252593839    -1.810874652593     1.007825032070
           H         -1.259093602143     0.203442593839    -2.941159652593     1.007825032070

  Running in c1 symmetry.

  Rotational constants: A =      0.09798  B =      0.05532  C =      0.04285 [cm^-1]
  Rotational constants: A =   2937.25178  B =   1658.51073  C =   1284.66796 [MHz]
  Nuclear repulsion =  611.590449469753025

  Charge       = 0
  Multiplicity = 1
  Electrons    = 74
  Nalpha       = 37
  Nbeta        = 37

  ==> Algorithm <==

  SCF Algorithm Type is DF.
  DIIS enabled.
  MOM disabled.
  Fractional occupation disabled.
  Guess Type is CORE.
  Energy threshold   = 1.00e-06
  Density threshold  = 1.00e-06
  Integral threshold = 0.00e+00

  ==> Primary Basis <==

  Basis Set: 6-31G*
    Number of shells: 90
    Number of basis function: 171
    Number of Cartesian functions: 171
    Spherical Harmonics?: false
    Max angular momentum: 2

  ==> Pre-Iterations <==

   -------------------------------------------------------
    Irrep   Nso     Nmo     Nalpha   Nbeta   Ndocc  Nsocc
   -------------------------------------------------------
     A        171     171       0       0       0       0
   -------------------------------------------------------
    Total     171     171      37      37      37       0
   -------------------------------------------------------

 OEINTS: Overlap, kinetic, potential, dipole, and quadrupole integrals
         stored in file 35.

  ==> Integral Setup <==

  ==> DFJK: Density-Fitted J/K Matrices <==

    J tasked:                  Yes
    K tasked:                  Yes
    wK tasked:                  No
    OpenMP threads:              1
    Integrals threads:           1
    Memory (MB):              1430
    Algorithm:                Core
    Integral Cache:           NONE
    Schwarz Cutoff:          1E-12
    Fitting Condition:       1E-12

   => Auxiliary Basis Set <=

  Basis Set: 
    Number of shells: 378
    Number of basis function: 1179
    Number of Cartesian functions: 1179
    Spherical Harmonics?: false
    Max angular momentum: 3

  Minimum eigenvalue in the overlap matrix is 5.3357921235E-04.
  Using Symmetric Orthogonalization.
  SCF Guess: Core (One-Electron) Hamiltonian.

  ==> Iterations <==

                           Total Energy        Delta E     RMS |[F,P]|

   @DF-RHF iter   1:  -181.78378176583965   -1.81784e+02   8.82992e-02 
   @DF-RHF iter   2:  -104.66766112992946    7.71161e+01   7.29087e-02 DIIS
   @DF-RHF iter   3:  -286.20203051635394   -1.81534e+02   6.16542e-02 DIIS
   @DF-RHF iter   4:  -339.43583488532272   -5.32338e+01   4.59585e-02 DIIS
   @DF-RHF iter   5:  -364.21203652022018   -2.47762e+01   3.04462e-02 DIIS
   @DF-RHF iter   6:  -385.27072133245736   -2.10587e+01   5.22279e-03 DIIS
   @DF-RHF iter   7:  -385.63673954114631   -3.66018e-01   2.31144e-03 DIIS
   @DF-RHF iter   8:  -385.71070396348580   -7.39644e-02   7.35520e-04 DIIS
   @DF-RHF iter   9:  -385.71942284560544   -8.71888e-03   2.63263e-04 DIIS
   @DF-RHF iter  10:  -385.72065447142097   -1.23163e-03   9.39848e-05 DIIS
   @DF-RHF iter  11:  -385.72090416695869   -2.49696e-04   3.49909e-05 DIIS
   @DF-RHF iter  12:  -385.72095917443983   -5.50075e-05   1.24609e-05 DIIS
   @DF-RHF iter  13:  -385.72096979062690   -1.06162e-05   5.46837e-06 DIIS
   @DF-RHF iter  14:  -385.72097174382009   -1.95319e-06   2.20661e-06 DIIS
   @DF-RHF iter  15:  -385.72097206466685   -3.20847e-07   6.31037e-07 DIIS

  ==> Post-Iterations <==

    Orbital Energies (a.u.)
    -----------------------

    Doubly Occupied:                                                      

       1A    -20.550565     2A    -11.282416     3A    -11.255450  
       4A    -11.231586     5A    -11.226659     6A    -11.225619  
       7A    -11.213697     8A    -11.202229     9A    -11.198317  
      10A     -1.879468    11A     -1.442616    12A     -1.268531  
      13A     -1.113974    14A     -1.042441    15A     -0.996299  
      16A     -0.938136    17A     -0.880141    18A     -0.815862  
      19A     -0.808983    20A     -0.772370    21A     -0.732714  
      22A     -0.678202    23A     -0.652230    24A     -0.616503  
      25A     -0.593144    26A     -0.585018    27A     -0.575819  
      28A     -0.557721    29A     -0.548654    30A     -0.506461  
      31A     -0.479102    32A     -0.475869    33A     -0.452134  
      34A     -0.426128    35A     -0.331871    36A     -0.225384  
      37A     -0.154779  

    Virtual:                                                              

      38A      0.200308    39A      0.225543    40A      0.235247  
      41A      0.264211    42A      0.282484    43A      0.283821  
      44A      0.297710    45A      0.299584    46A      0.310736  
      47A      0.315367    48A      0.323796    49A      0.342344  
      50A      0.346235    51A      0.354787    52A      0.362025  
      53A      0.371669    54A      0.382887    55A      0.404322  
      56A      0.415283    57A      0.443361    58A      0.456707  
      59A      0.470476    60A      0.510930    61A      0.564895  
      62A      0.570946    63A      0.604758    64A      0.651894  
      65A      0.684828    66A      0.704353    67A      0.713369  
      68A      0.752225    69A      0.780387    70A      0.796559  
      71A      0.822394    72A      0.848270    73A      0.855574  
      74A      0.894764    75A      0.920180    76A      0.927252  
      77A      0.948227    78A      0.953691    79A      0.989734  
      80A      0.995740    81A      1.019587    82A      1.054233  
      83A      1.079564    84A      1.082385    85A      1.108429  
      86A      1.120296    87A      1.136112    88A      1.142206  
      89A      1.161420    90A      1.175894    91A      1.183901  
      92A      1.189411    93A      1.200372    94A      1.213439  
      95A      1.220804    96A      1.245172    97A      1.256145  
      98A      1.263641    99A      1.269949   100A      1.307248  
     101A      1.329420   102A      1.358014   103A      1.416804  
     104A      1.432137   105A      1.440624   106A      1.502916  
     107A      1.540675   108A      1.600154   109A      1.642677  
     110A      1.713495   111A      1.764340   112A      1.785816  
     113A      1.823135   114A      1.844778   115A      1.890328  
     116A      1.917564   117A      1.947485   118A      1.998149  
     119A      2.057531   120A      2.075887   121A      2.106881  
     122A      2.144415   123A      2.167151   124A      2.198964  
     125A      2.208906   126A      2.238583   127A      2.247107  
     128A      2.294989   129A      2.333272   130A      2.372821  
     131A      2.386913   132A      2.451531   133A      2.470635  
     134A      2.527520   135A      2.541781   136A      2.584136  
     137A      2.601165   138A      2.619577   139A      2.633666  
     140A      2.646255   141A      2.668764   142A      2.705594  
     143A      2.740019   144A      2.766719   145A      2.815348  
     146A      2.837984   147A      2.860149   148A      2.900439  
     149A      2.938853   150A      2.999230   151A      3.029304  
     152A      3.065658   153A      3.101177   154A      3.160315  
     155A      3.227875   156A      3.271842   157A      3.369103  
     158A      3.392990   159A      3.529335   160A      3.656921  
     161A      3.921650   162A      4.596229   163A      4.602995  
     164A      4.772221   165A      4.803401   166A      4.888660  
     167A      4.929906   168A      5.036805   169A      5.074181  
     170A      5.225507   171A      5.427937  

    Final Occupation by Irrep:
              A 
    DOCC [    37 ]

  Energy converged.

  @DF-RHF Final Energy:  -385.72097206466685

   => Energetics <=

    Nuclear Repulsion Energy =            611.5904494697530254
    One-Electron Energy =               -1732.7489743507180719
    Two-Electron Energy =                 735.4375528163000126
    DFT Exchange-Correlation Energy =       0.0000000000000000
    Empirical Dispersion Energy =           0.0000000000000000
    PCM Polarization Energy =               0.0000000000000000
    EFP Energy =                            0.0000000000000000
    Total Energy =                       -385.7209720646651476

    Alert: EFP and PCM quantities not currently incorporated into SCF psivars.

Properties will be evaluated at   0.000000,   0.000000,   0.000000 Bohr
  ==> Properties <==


Properties computed using the SCF density matrix

  Nuclear Dipole Moment: (a.u.)
     X:    -2.2419      Y:    -1.9978      Z:    -0.9303

  Electronic Dipole Moment: (a.u.)
     X:     1.9503      Y:     1.9809      Z:     1.0059

  Dipole Moment: (a.u.)
     X:    -0.2915      Y:    -0.0169      Z:     0.0755     Total:     0.3016

  Dipole Moment: (Debye)
     X:    -0.7410      Y:    -0.0430      Z:     0.1920     Total:     0.7667


  Saving occupied orbitals to File 180.

*** tstop() called on cx1-3-4-2.cx1.hpc.ic.ac.uk at Tue Jul  5 17:59:58 2016
Module time:
	user time   =      41.56 seconds =       0.69 minutes
	system time =       0.33 seconds =       0.01 minutes
	total time  =         42 seconds =       0.70 minutes
Total time:
	user time   =      41.56 seconds =       0.69 minutes
	system time =       0.33 seconds =       0.01 minutes
	total time  =         42 seconds =       0.70 minutes


Properties will be evaluated at   0.000000,   0.000000,   0.000000 Bohr

Properties computed using the  density matrix

  Nuclear Dipole Moment: (a.u.)
     X:    -2.2419      Y:    -1.9978      Z:    -0.9303

  Electronic Dipole Moment: (a.u.)
     X:     1.9503      Y:     1.9809      Z:     1.0059

  Dipole Moment: (a.u.)
     X:    -0.2915      Y:    -0.0169      Z:     0.0755     Total:     0.3016

  Dipole Moment: (Debye)
     X:    -0.7410      Y:    -0.0430      Z:     0.1920     Total:     0.7667

  Quadrupole Moment: (Debye Ang)
    XX:   -64.4767     YY:   -61.5935     ZZ:   -59.8128
    XY:     2.3492     XZ:     2.2740     YZ:    -3.0378

  Traceless Quadrupole Moment: (Debye Ang)
    XX:    -2.5157     YY:     0.3674     ZZ:     2.1482
    XY:     2.3492     XZ:     2.2740     YZ:    -3.0378

  Mulliken Charges: (a.u.)
   Center  Symbol    Alpha    Beta     Spin     Total
       1     H     0.48462  0.48462  0.00000  0.03077
       2     O     4.14359  4.14359  0.00000 -0.28718
       3     C     3.15687  3.15687  0.00000 -0.31374
       4     C     3.23136  3.23136  0.00000 -0.46272
       5     H     0.46876  0.46876  0.00000  0.06248
       6     H     0.50161  0.50161  0.00000 -0.00323
       7     C     3.16185  3.16185  0.00000 -0.32370
       8     H     0.39229  0.39229  0.00000  0.21543
       9     H     0.37625  0.37625  0.00000  0.24751
      10     C     3.15670  3.15670  0.00000 -0.31341
      11     H     0.41292  0.41292  0.00000  0.17415
      12     H     0.41374  0.41374  0.00000  0.17253
      13     C     3.16950  3.16950  0.00000 -0.33899
      14     H     0.41680  0.41680  0.00000  0.16640
      15     H     0.42118  0.42118  0.00000  0.15765
      16     C     3.15431  3.15431  0.00000 -0.30863
      17     H     0.40917  0.40917  0.00000  0.18167
      18     H     0.42546  0.42546  0.00000  0.14908
      19     C     3.00132  3.00132  0.00000 -0.00265
      20     H     0.47672  0.47672  0.00000  0.04655
      21     H     0.43192  0.43192  0.00000  0.13615
      22     C     3.27308  3.27308  0.00000 -0.54616
      23     H     0.40982  0.40982  0.00000  0.18036
      24     H     0.29453  0.29453  0.00000  0.41094
      25     H     0.40966  0.40966  0.00000  0.18067
      26     H     0.38564  0.38564  0.00000  0.22871
      27     H     0.42032  0.42032  0.00000  0.15936

   Total alpha = 37.00000, Total beta = 37.00000, Total charge =  0.00000


*** PSI4 exiting successfully. Buy a developer a beer!
