    -----------------------------------------------------------------------
          Psi4: An Open-Source Ab Initio Electronic Structure Package
                              Psi4 (no tag) Driver

                          Git: Rev {detached?}  

    J. M. Turney, A. C. Simmonett, R. M. Parrish, E. G. Hohenstein,
    F. A. Evangelista, J. T. Fermann, B. J. Mintz, L. A. Burns, J. J. Wilke,
    M. L. Abrams, N. J. Russ, M. L. Leininger, C. L. Janssen, E. T. Seidl,
    W. D. Allen, H. F. Schaefer, R. A. King, E. F. Valeev, C. D. Sherrill,
    and T. D. Crawford, WIREs Comput. Mol. Sci. 2, 556-565 (2012)
    (doi: 10.1002/wcms.93)

                         Additional Contributions by
    A. E. DePrince, M. Saitow, U. Bozkaya, A. Yu. Sokolov
    -----------------------------------------------------------------------


    Psi4 started on: Tue Jul  5 16:39:47 2016

    Process ID:  23024
    PSI4DATADIR: /export131/home/mjharvey/miniconda3/share
    Memory level set to 256.000 MB

  ==> Input File <==

--------------------------------------------------------------------------
set {
	reference rhf
	basis 6-31G*
}


set_num_threads( 1 )
memory 2 gb

molecule MOL {
0 1

H	 -2.698709	 -0.000305	 0.034435
C	 -1.693833	 0.000034	 0.434417
O	 -0.828952	 -0.000968	 -0.659236
H	 -1.574200	 0.882896	 1.055746
H	 -1.574147	 -0.881698	 1.057355
C	 -0.078944	 -1.163540	 -0.924601
C	 1.071470	 -1.355630	 0.061586
C	 -0.953806	 -2.409679	 -1.045895
H	 0.349671	 -0.962962	 -1.899326
H	 1.639871	 -0.437061	 0.160062
H	 1.739832	 -2.133124	 -0.294829
H	 0.723587	 -1.651029	 1.046412
H	 -1.787569	 -2.220460	 -1.713347
H	 -0.373274	 -3.232632	 -1.451105
H	 -1.348003	 -2.730054	 -0.086828

	symmetry c1
}
set optking {
	frozen_dihedral = ("
		9 6 3 2
	")
}

ee = energy('scf')
oeprop('DIPOLE', 'QUADRUPOLE', 'MULLIKEN_CHARGES')
f=open( 'psi4out.xyz', 'w' )
f.write( "15  " )
f.write( str(ee) + "\n" )
f.write( MOL.save_string_xyz() )
f.close()
--------------------------------------------------------------------------

  Memory set to   2.000 GiB by Python script.

*** tstart() called on cx1-3-4-2.cx1.hpc.ic.ac.uk
*** at Tue Jul  5 16:39:48 2016


         ---------------------------------------------------------
                                   SCF
            by Justin Turney, Rob Parrish, and Andy Simmonett
                              RHF Reference
                        1 Threads,   2000 MiB Core
         ---------------------------------------------------------

  ==> Geometry <==

    Molecular point group: c1
    Full point group: C1

    Geometry (in Angstrom), charge = 0, multiplicity = 1:

       Center              X                  Y                   Z               Mass       
    ------------   -----------------  -----------------  -----------------  -----------------
           H         -2.184870025184     0.980242879539     0.444112783126     1.007825032070
           C         -1.179994025184     0.980581879539     0.844094783126    12.000000000000
           O         -0.315113025184     0.979579879539    -0.249558216874    15.994914619560
           H         -1.060361025184     1.863443879539     1.465423783126     1.007825032070
           H         -1.060308025184     0.098849879539     1.467032783126     1.007825032070
           C          0.434894974816    -0.182992120461    -0.514923216874    12.000000000000
           C          1.585308974816    -0.375082120461     0.471263783126    12.000000000000
           C         -0.439967025184    -1.429131120461    -0.636217216874    12.000000000000
           H          0.863509974816     0.017585879539    -1.489648216874     1.007825032070
           H          2.153709974816     0.543486879539     0.569739783126     1.007825032070
           H          2.253670974816    -1.152576120461     0.114848783126     1.007825032070
           H          1.237425974816    -0.670481120461     1.456089783126     1.007825032070
           H         -1.273730025184    -1.239912120461    -1.303669216874     1.007825032070
           H          0.140564974816    -2.252084120461    -1.041427216874     1.007825032070
           H         -0.834164025184    -1.749506120461     0.322849783126     1.007825032070

  Running in c1 symmetry.

  Rotational constants: A =      0.21831  B =      0.13990  C =      0.10818 [cm^-1]
  Rotational constants: A =   6544.82243  B =   4194.13261  C =   3243.00575 [MHz]
  Nuclear repulsion =  198.831154576734946

  Charge       = 0
  Multiplicity = 1
  Electrons    = 42
  Nalpha       = 21
  Nbeta        = 21

  ==> Algorithm <==

  SCF Algorithm Type is DF.
  DIIS enabled.
  MOM disabled.
  Fractional occupation disabled.
  Guess Type is CORE.
  Energy threshold   = 1.00e-06
  Density threshold  = 1.00e-06
  Integral threshold = 0.00e+00

  ==> Primary Basis <==

  Basis Set: 6-31G*
    Number of shells: 50
    Number of basis function: 95
    Number of Cartesian functions: 95
    Spherical Harmonics?: false
    Max angular momentum: 2

  ==> Pre-Iterations <==

   -------------------------------------------------------
    Irrep   Nso     Nmo     Nalpha   Nbeta   Ndocc  Nsocc
   -------------------------------------------------------
     A         95      95       0       0       0       0
   -------------------------------------------------------
    Total      95      95      21      21      21       0
   -------------------------------------------------------

 OEINTS: Overlap, kinetic, potential, dipole, and quadrupole integrals
         stored in file 35.

  ==> Integral Setup <==

  ==> DFJK: Density-Fitted J/K Matrices <==

    J tasked:                  Yes
    K tasked:                  Yes
    wK tasked:                  No
    OpenMP threads:              1
    Integrals threads:           1
    Memory (MB):              1430
    Algorithm:                Core
    Integral Cache:           NONE
    Schwarz Cutoff:          1E-12
    Fitting Condition:       1E-12

   => Auxiliary Basis Set <=

  Basis Set: 
    Number of shells: 210
    Number of basis function: 655
    Number of Cartesian functions: 655
    Spherical Harmonics?: false
    Max angular momentum: 3

  Minimum eigenvalue in the overlap matrix is 4.1614010654E-03.
  Using Symmetric Orthogonalization.
  SCF Guess: Core (One-Electron) Hamiltonian.

  ==> Iterations <==

                           Total Energy        Delta E     RMS |[F,P]|

   @DF-RHF iter   1:  -180.53613090759086   -1.80536e+02   8.50362e-02 
   @DF-RHF iter   2:  -184.59076647972097   -4.05464e+00   5.37653e-02 DIIS
   @DF-RHF iter   3:  -206.48290704896027   -2.18921e+01   5.93819e-02 DIIS
   @DF-RHF iter   4:  -228.52761862409659   -2.20447e+01   2.79986e-02 DIIS
   @DF-RHF iter   5:  -231.23520112977934   -2.70758e+00   1.33509e-02 DIIS
   @DF-RHF iter   6:  -232.01232507166412   -7.77124e-01   4.68919e-03 DIIS
   @DF-RHF iter   7:  -232.12799980938132   -1.15675e-01   8.56979e-04 DIIS
   @DF-RHF iter   8:  -232.13330571036050   -5.30590e-03   2.73712e-04 DIIS
   @DF-RHF iter   9:  -232.13388391862645   -5.78208e-04   1.09849e-04 DIIS
   @DF-RHF iter  10:  -232.13395720186071   -7.32832e-05   2.90762e-05 DIIS
   @DF-RHF iter  11:  -232.13396370363813   -6.50178e-06   1.07525e-05 DIIS
   @DF-RHF iter  12:  -232.13396442192658   -7.18288e-07   1.80584e-06 DIIS
   @DF-RHF iter  13:  -232.13396445488866   -3.29621e-08   5.03109e-07 DIIS

  ==> Post-Iterations <==

    Orbital Energies (a.u.)
    -----------------------

    Doubly Occupied:                                                      

       1A    -20.545504     2A    -11.275166     3A    -11.260890  
       4A    -11.211727     5A    -11.209661     6A     -1.369344  
       7A     -1.050498     8A     -0.940974     9A     -0.929918  
      10A     -0.781449    11A     -0.676748    12A     -0.639343  
      13A     -0.632404    14A     -0.570758    15A     -0.562364  
      16A     -0.552094    17A     -0.538243    18A     -0.501016  
      19A     -0.497742    20A     -0.442630    21A     -0.401740  

    Virtual:                                                              

      22A      0.222833    23A      0.268019    24A      0.290029  
      25A      0.296983    26A      0.303796    27A      0.318449  
      28A      0.324541    29A      0.342252    30A      0.347246  
      31A      0.360530    32A      0.375285    33A      0.406669  
      34A      0.457260    35A      0.473835    36A      0.698387  
      37A      0.704965    38A      0.729654    39A      0.744000  
      40A      0.782647    41A      0.837015    42A      0.895787  
      43A      0.918467    44A      0.960168    45A      0.972469  
      46A      0.980060    47A      1.058111    48A      1.112323  
      49A      1.140604    50A      1.163873    51A      1.171159  
      52A      1.181499    53A      1.191539    54A      1.194043  
      55A      1.207443    56A      1.235953    57A      1.260638  
      58A      1.270816    59A      1.305609    60A      1.382926  
      61A      1.425771    62A      1.617623    63A      1.638233  
      64A      1.676193    65A      1.691314    66A      1.840602  
      67A      1.891066    68A      1.955968    69A      2.046787  
      70A      2.063066    71A      2.124780    72A      2.215483  
      73A      2.224601    74A      2.334894    75A      2.408877  
      76A      2.455849    77A      2.483250    78A      2.527336  
      79A      2.575424    80A      2.584229    81A      2.611643  
      82A      2.632804    83A      2.681202    84A      2.749987  
      85A      2.833832    86A      2.877478    87A      2.954242  
      88A      3.111164    89A      3.224291    90A      3.314373  
      91A      4.385735    92A      4.619691    93A      4.680367  
      94A      4.723877    95A      4.968556  

    Final Occupation by Irrep:
              A 
    DOCC [    21 ]

  Energy converged.

  @DF-RHF Final Energy:  -232.13396445488866

   => Energetics <=

    Nuclear Repulsion Energy =            198.8311545767349457
    One-Electron Energy =                -708.7496265162404825
    Two-Electron Energy =                 277.7845074846171656
    DFT Exchange-Correlation Energy =       0.0000000000000000
    Empirical Dispersion Energy =           0.0000000000000000
    PCM Polarization Energy =               0.0000000000000000
    EFP Energy =                            0.0000000000000000
    Total Energy =                       -232.1339644548883712

    Alert: EFP and PCM quantities not currently incorporated into SCF psivars.

Properties will be evaluated at   0.000000,   0.000000,   0.000000 Bohr
  ==> Properties <==


Properties computed using the SCF density matrix

  Nuclear Dipole Moment: (a.u.)
     X:     0.2192      Y:    -3.3336      Z:     1.8788

  Electronic Dipole Moment: (a.u.)
     X:    -0.2438      Y:     2.8416      Z:    -1.5618

  Dipole Moment: (a.u.)
     X:    -0.0246      Y:    -0.4920      Z:     0.3170     Total:     0.5858

  Dipole Moment: (Debye)
     X:    -0.0626      Y:    -1.2506      Z:     0.8056     Total:     1.4889


  Saving occupied orbitals to File 180.

*** tstop() called on cx1-3-4-2.cx1.hpc.ic.ac.uk at Tue Jul  5 16:39:55 2016
Module time:
	user time   =       6.89 seconds =       0.11 minutes
	system time =       0.05 seconds =       0.00 minutes
	total time  =          7 seconds =       0.12 minutes
Total time:
	user time   =       6.89 seconds =       0.11 minutes
	system time =       0.05 seconds =       0.00 minutes
	total time  =          7 seconds =       0.12 minutes


Properties will be evaluated at   0.000000,   0.000000,   0.000000 Bohr

Properties computed using the  density matrix

  Nuclear Dipole Moment: (a.u.)
     X:     0.2192      Y:    -3.3336      Z:     1.8788

  Electronic Dipole Moment: (a.u.)
     X:    -0.2438      Y:     2.8416      Z:    -1.5618

  Dipole Moment: (a.u.)
     X:    -0.0246      Y:    -0.4920      Z:     0.3170     Total:     0.5858

  Dipole Moment: (Debye)
     X:    -0.0626      Y:    -1.2506      Z:     0.8056     Total:     1.4889

  Quadrupole Moment: (Debye Ang)
    XX:   -32.0768     YY:   -34.8061     ZZ:   -32.3276
    XY:    -0.5649     XZ:    -1.5614     YZ:     1.7740

  Traceless Quadrupole Moment: (Debye Ang)
    XX:     0.9933     YY:    -1.7360     ZZ:     0.7426
    XY:    -0.5649     XZ:    -1.5614     YZ:     1.7740

  Mulliken Charges: (a.u.)
   Center  Symbol    Alpha    Beta     Spin     Total
       1     H     0.42221  0.42221  0.00000  0.15559
       2     C     3.07883  3.07883  0.00000 -0.15766
       3     O     4.31503  4.31503  0.00000 -0.63007
       4     H     0.41854  0.41854  0.00000  0.16292
       5     H     0.43042  0.43042  0.00000  0.13915
       6     C     2.90974  2.90974  0.00000  0.18051
       7     C     3.24888  3.24888  0.00000 -0.49776
       8     C     3.25522  3.25522  0.00000 -0.51045
       9     H     0.41550  0.41550  0.00000  0.16900
      10     H     0.41109  0.41109  0.00000  0.17781
      11     H     0.42098  0.42098  0.00000  0.15803
      12     H     0.42276  0.42276  0.00000  0.15448
      13     H     0.41156  0.41156  0.00000  0.17688
      14     H     0.41809  0.41809  0.00000  0.16382
      15     H     0.42113  0.42113  0.00000  0.15775

   Total alpha = 21.00000, Total beta = 21.00000, Total charge =  0.00000


*** PSI4 exiting successfully. Buy a developer a beer!
