    -----------------------------------------------------------------------
          Psi4: An Open-Source Ab Initio Electronic Structure Package
                              Psi4 (no tag) Driver

                          Git: Rev {detached?}  

    J. M. Turney, A. C. Simmonett, R. M. Parrish, E. G. Hohenstein,
    F. A. Evangelista, J. T. Fermann, B. J. Mintz, L. A. Burns, J. J. Wilke,
    M. L. Abrams, N. J. Russ, M. L. Leininger, C. L. Janssen, E. T. Seidl,
    W. D. Allen, H. F. Schaefer, R. A. King, E. F. Valeev, C. D. Sherrill,
    and T. D. Crawford, WIREs Comput. Mol. Sci. 2, 556-565 (2012)
    (doi: 10.1002/wcms.93)

                         Additional Contributions by
    A. E. DePrince, M. Saitow, U. Bozkaya, A. Yu. Sokolov
    -----------------------------------------------------------------------


    Psi4 started on: Tue Jul  5 16:33:19 2016

    Process ID:  21764
    PSI4DATADIR: /export131/home/mjharvey/miniconda3/share
    Memory level set to 256.000 MB

  ==> Input File <==

--------------------------------------------------------------------------
set {
	reference rhf
	basis 6-31G*
}


set_num_threads( 1 )
memory 2 gb

molecule MOL {
0 1

H	 -1.748661	 -2.220942	 -0.005015
C	 -1.343207	 -1.225221	 -0.013879
N	 -0.055091	 -1.100174	 -0.261126
C	 -2.150779	 -0.125890	 0.222726
C	 0.449969	 0.122615	 -0.277109
H	 -3.200618	 -0.238980	 0.422496
N	 -1.660212	 1.097703	 0.209594
C	 -0.371804	 1.219904	 -0.038265
C	 1.928147	 0.267347	 -0.541394
H	 0.029131	 2.217482	 -0.051283
C	 2.378927	 1.731769	 -0.558075
H	 2.466591	 -0.267071	 0.234065
H	 2.174874	 -0.204975	 -1.487022
H	 3.449576	 1.798822	 -0.723038
H	 2.149438	 2.211336	 0.386292
H	 1.881762	 2.285095	 -1.348624

	symmetry c1
}
ee = energy('scf')
oeprop('DIPOLE', 'QUADRUPOLE', 'MULLIKEN_CHARGES')
f=open( 'psi4out.xyz', 'w' )
f.write( "16  " )
f.write( str(ee) + "\n" )
f.write( MOL.save_string_xyz() )
f.close()
--------------------------------------------------------------------------

  Memory set to   2.000 GiB by Python script.

*** tstart() called on cx1-3-6-2.cx1.hpc.ic.ac.uk
*** at Tue Jul  5 16:33:20 2016


         ---------------------------------------------------------
                                   SCF
            by Justin Turney, Rob Parrish, and Andy Simmonett
                              RHF Reference
                        1 Threads,   2000 MiB Core
         ---------------------------------------------------------

  ==> Geometry <==

    Molecular point group: c1
    Full point group: C1

    Geometry (in Angstrom), charge = 0, multiplicity = 1:

       Center              X                  Y                   Z               Mass       
    ------------   -----------------  -----------------  -----------------  -----------------
           H         -1.692529793354    -2.493695442210     0.159563702788     1.007825032070
           C         -1.287075793354    -1.497974442210     0.150699702788    12.000000000000
           N          0.001040206646    -1.372927442210    -0.096547297212    14.003074004780
           C         -2.094647793354    -0.398643442210     0.387304702788    12.000000000000
           C          0.506100206646    -0.150138442210    -0.112530297212    12.000000000000
           H         -3.144486793354    -0.511733442210     0.587074702788     1.007825032070
           N         -1.604080793354     0.824949557790     0.374172702788    14.003074004780
           C         -0.315672793354     0.947150557790     0.126313702788    12.000000000000
           C          1.984278206646    -0.005406442210    -0.376815297212    12.000000000000
           H          0.085262206646     1.944728557790     0.113295702788     1.007825032070
           C          2.435058206646     1.459015557790    -0.393496297212    12.000000000000
           H          2.522722206646    -0.539824442210     0.398643702788     1.007825032070
           H          2.231005206646    -0.477728442210    -1.322443297212     1.007825032070
           H          3.505707206646     1.526068557790    -0.558459297212     1.007825032070
           H          2.205569206646     1.938582557790     0.550870702788     1.007825032070
           H          1.937893206646     2.012341557790    -1.184045297212     1.007825032070

  Running in c1 symmetry.

  Rotational constants: A =      0.16831  B =      0.05362  C =      0.04128 [cm^-1]
  Rotational constants: A =   5045.90749  B =   1607.59105  C =   1237.67589 [MHz]
  Nuclear repulsion =  350.615073536832369

  Charge       = 0
  Multiplicity = 1
  Electrons    = 58
  Nalpha       = 29
  Nbeta        = 29

  ==> Algorithm <==

  SCF Algorithm Type is DF.
  DIIS enabled.
  MOM disabled.
  Fractional occupation disabled.
  Guess Type is CORE.
  Energy threshold   = 1.00e-06
  Density threshold  = 1.00e-06
  Integral threshold = 0.00e+00

  ==> Primary Basis <==

  Basis Set: 6-31G*
    Number of shells: 64
    Number of basis function: 136
    Number of Cartesian functions: 136
    Spherical Harmonics?: false
    Max angular momentum: 2

  ==> Pre-Iterations <==

   -------------------------------------------------------
    Irrep   Nso     Nmo     Nalpha   Nbeta   Ndocc  Nsocc
   -------------------------------------------------------
     A        136     136       0       0       0       0
   -------------------------------------------------------
    Total     136     136      29      29      29       0
   -------------------------------------------------------

 OEINTS: Overlap, kinetic, potential, dipole, and quadrupole integrals
         stored in file 35.

  ==> Integral Setup <==

  ==> DFJK: Density-Fitted J/K Matrices <==

    J tasked:                  Yes
    K tasked:                  Yes
    wK tasked:                  No
    OpenMP threads:              1
    Integrals threads:           1
    Memory (MB):              1430
    Algorithm:                Core
    Integral Cache:           NONE
    Schwarz Cutoff:          1E-12
    Fitting Condition:       1E-12

   => Auxiliary Basis Set <=

  Basis Set: 
    Number of shells: 264
    Number of basis function: 848
    Number of Cartesian functions: 848
    Spherical Harmonics?: false
    Max angular momentum: 3

  Minimum eigenvalue in the overlap matrix is 1.1662891885E-03.
  Using Symmetric Orthogonalization.
  SCF Guess: Core (One-Electron) Hamiltonian.

  ==> Iterations <==

                           Total Energy        Delta E     RMS |[F,P]|

   @DF-RHF iter   1:  -251.55560394392796   -2.51556e+02   6.98801e-02 
   @DF-RHF iter   2:  -127.79508075078706    1.23761e+02   8.14375e-02 DIIS
   @DF-RHF iter   3:  -227.62645970505332   -9.98314e+01   7.07326e-02 DIIS
   @DF-RHF iter   4:  -289.31474342919796   -6.16883e+01   5.34299e-02 DIIS
   @DF-RHF iter   5:  -327.55865245221025   -3.82439e+01   2.63335e-02 DIIS
   @DF-RHF iter   6:  -335.51287262831943   -7.95422e+00   1.91546e-02 DIIS
   @DF-RHF iter   7:  -340.13507827971330   -4.62221e+00   7.59132e-03 DIIS
   @DF-RHF iter   8:  -340.63592227831055   -5.00844e-01   3.19980e-03 DIIS
   @DF-RHF iter   9:  -340.73543260256452   -9.95103e-02   1.14754e-03 DIIS
   @DF-RHF iter  10:  -340.75141393022818   -1.59813e-02   4.12459e-04 DIIS
   @DF-RHF iter  11:  -340.75421554037314   -2.80161e-03   1.17524e-04 DIIS
   @DF-RHF iter  12:  -340.75445572124977   -2.40181e-04   5.77500e-05 DIIS
   @DF-RHF iter  13:  -340.75452878550664   -7.30643e-05   3.34409e-05 DIIS
   @DF-RHF iter  14:  -340.75455507585457   -2.62903e-05   1.07266e-05 DIIS
   @DF-RHF iter  15:  -340.75455984647726   -4.77062e-06   3.11699e-06 DIIS
   @DF-RHF iter  16:  -340.75456037104505   -5.24568e-07   1.28148e-06 DIIS
   @DF-RHF iter  17:  -340.75456043844622   -6.74012e-08   3.70277e-07 DIIS

  ==> Post-Iterations <==

    Orbital Energies (a.u.)
    -----------------------

    Doubly Occupied:                                                      

       1A    -15.585817     2A    -15.581281     3A    -11.280986  
       4A    -11.275777     5A    -11.271389     6A    -11.269606  
       7A    -11.233881     8A    -11.223295     9A     -1.312494  
      10A     -1.220803    11A     -1.088622    12A     -1.013665  
      13A     -0.908433    14A     -0.890981    15A     -0.830236  
      16A     -0.716047    17A     -0.707498    18A     -0.650693  
      19A     -0.633833    20A     -0.613289    21A     -0.566899  
      22A     -0.560356    23A     -0.517112    24A     -0.513271  
      25A     -0.509707    26A     -0.484121    27A     -0.426909  
      28A     -0.393665    29A     -0.345182  

    Virtual:                                                              

      30A      0.103654    31A      0.137276    32A      0.240023  
      33A      0.272689    34A      0.278833    35A      0.295288  
      36A      0.311464    37A      0.315714    38A      0.333435  
      39A      0.338286    40A      0.379014    41A      0.384104  
      42A      0.398355    43A      0.428575    44A      0.508842  
      45A      0.518798    46A      0.560765    47A      0.629115  
      48A      0.659870    49A      0.719627    50A      0.723363  
      51A      0.726680    52A      0.749532    53A      0.784981  
      54A      0.795034    55A      0.815645    56A      0.833255  
      57A      0.848234    58A      0.869358    59A      0.900109  
      60A      0.912428    61A      0.945587    62A      0.974051  
      63A      1.000949    64A      1.044386    65A      1.063884  
      66A      1.083957    67A      1.088966    68A      1.108413  
      69A      1.112183    70A      1.126538    71A      1.136441  
      72A      1.153591    73A      1.164789    74A      1.181228  
      75A      1.211879    76A      1.216387    77A      1.243889  
      78A      1.260854    79A      1.271168    80A      1.318376  
      81A      1.379700    82A      1.426851    83A      1.500659  
      84A      1.505157    85A      1.529173    86A      1.609178  
      87A      1.692247    88A      1.709854    89A      1.759748  
      90A      1.774694    91A      1.787703    92A      1.797831  
      93A      1.903104    94A      1.923027    95A      2.030943  
      96A      2.097213    97A      2.109669    98A      2.125169  
      99A      2.143177   100A      2.186729   101A      2.247521  
     102A      2.282529   103A      2.289836   104A      2.346059  
     105A      2.424850   106A      2.477331   107A      2.507745  
     108A      2.543104   109A      2.575590   110A      2.603632  
     111A      2.645866   112A      2.658615   113A      2.684060  
     114A      2.693903   115A      2.712237   116A      2.718027  
     117A      2.825494   118A      2.867450   119A      2.902186  
     120A      2.941044   121A      3.015569   122A      3.103851  
     123A      3.137235   124A      3.192259   125A      3.226642  
     126A      3.290061   127A      3.515389   128A      3.847000  
     129A      4.383456   130A      4.505107   131A      4.557148  
     132A      4.647464   133A      4.710230   134A      4.736641  
     135A      4.893086   136A      5.014281  

    Final Occupation by Irrep:
              A 
    DOCC [    29 ]

  Energy converged.

  @DF-RHF Final Energy:  -340.75456043844622

   => Energetics <=

    Nuclear Repulsion Energy =            350.6150735368323694
    One-Electron Energy =               -1155.4876728340677801
    Two-Electron Energy =                 464.1180388587895322
    DFT Exchange-Correlation Energy =       0.0000000000000000
    Empirical Dispersion Energy =           0.0000000000000000
    PCM Polarization Energy =               0.0000000000000000
    EFP Energy =                            0.0000000000000000
    Total Energy =                       -340.7545604384458784

    Alert: EFP and PCM quantities not currently incorporated into SCF psivars.

Properties will be evaluated at   0.000000,   0.000000,   0.000000 Bohr
  ==> Properties <==


Properties computed using the SCF density matrix

  Nuclear Dipole Moment: (a.u.)
     X:     7.1774      Y:     3.1878      Z:    -1.1778

  Electronic Dipole Moment: (a.u.)
     X:    -6.9423      Y:    -3.2178      Z:     1.1344

  Dipole Moment: (a.u.)
     X:     0.2350      Y:    -0.0300      Z:    -0.0433     Total:     0.2409

  Dipole Moment: (Debye)
     X:     0.5974      Y:    -0.0762      Z:    -0.1102     Total:     0.6122


  Saving occupied orbitals to File 180.

*** tstop() called on cx1-3-6-2.cx1.hpc.ic.ac.uk at Tue Jul  5 16:33:35 2016
Module time:
	user time   =      14.61 seconds =       0.24 minutes
	system time =       0.09 seconds =       0.00 minutes
	total time  =         15 seconds =       0.25 minutes
Total time:
	user time   =      14.61 seconds =       0.24 minutes
	system time =       0.09 seconds =       0.00 minutes
	total time  =         15 seconds =       0.25 minutes


Properties will be evaluated at   0.000000,   0.000000,   0.000000 Bohr

Properties computed using the  density matrix

  Nuclear Dipole Moment: (a.u.)
     X:     7.1774      Y:     3.1878      Z:    -1.1778

  Electronic Dipole Moment: (a.u.)
     X:    -6.9423      Y:    -3.2178      Z:     1.1344

  Dipole Moment: (a.u.)
     X:     0.2350      Y:    -0.0300      Z:    -0.0433     Total:     0.2409

  Dipole Moment: (Debye)
     X:     0.5974      Y:    -0.0762      Z:    -0.1102     Total:     0.6122

  Quadrupole Moment: (Debye Ang)
    XX:   -44.2749     YY:   -49.5233     ZZ:   -48.7192
    XY:     6.5738     XZ:    -0.4084     YZ:    -1.3489

  Traceless Quadrupole Moment: (Debye Ang)
    XX:     3.2309     YY:    -2.0175     ZZ:    -1.2134
    XY:     6.5738     XZ:    -0.4084     YZ:    -1.3489

  Mulliken Charges: (a.u.)
   Center  Symbol    Alpha    Beta     Spin     Total
       1     H     0.39385  0.39385  0.00000  0.21230
       2     C     2.99052  2.99052  0.00000  0.01896
       3     N     3.75382  3.75382  0.00000 -0.50764
       4     C     2.99844  2.99844  0.00000  0.00313
       5     C     2.87920  2.87920  0.00000  0.24161
       6     H     0.39447  0.39447  0.00000  0.21105
       7     N     3.73278  3.73278  0.00000 -0.46557
       8     C     2.99790  2.99790  0.00000  0.00421
       9     C     3.15851  3.15851  0.00000 -0.31702
      10     H     0.39141  0.39141  0.00000  0.21718
      11     C     3.25893  3.25893  0.00000 -0.51786
      12     H     0.40415  0.40415  0.00000  0.19171
      13     H     0.40388  0.40388  0.00000  0.19225
      14     H     0.41088  0.41088  0.00000  0.17824
      15     H     0.41585  0.41585  0.00000  0.16830
      16     H     0.41542  0.41542  0.00000  0.16916

   Total alpha = 29.00000, Total beta = 29.00000, Total charge = -0.00000


*** PSI4 exiting successfully. Buy a developer a beer!
