    -----------------------------------------------------------------------
          Psi4: An Open-Source Ab Initio Electronic Structure Package
                              Psi4 (no tag) Driver

                          Git: Rev {detached?}  

    J. M. Turney, A. C. Simmonett, R. M. Parrish, E. G. Hohenstein,
    F. A. Evangelista, J. T. Fermann, B. J. Mintz, L. A. Burns, J. J. Wilke,
    M. L. Abrams, N. J. Russ, M. L. Leininger, C. L. Janssen, E. T. Seidl,
    W. D. Allen, H. F. Schaefer, R. A. King, E. F. Valeev, C. D. Sherrill,
    and T. D. Crawford, WIREs Comput. Mol. Sci. 2, 556-565 (2012)
    (doi: 10.1002/wcms.93)

                         Additional Contributions by
    A. E. DePrince, M. Saitow, U. Bozkaya, A. Yu. Sokolov
    -----------------------------------------------------------------------


    Psi4 started on: Tue Jul  5 16:21:15 2016

    Process ID:  25371
    PSI4DATADIR: /export131/home/mjharvey/miniconda3/share
    Memory level set to 256.000 MB

  ==> Input File <==

--------------------------------------------------------------------------
set {
	reference rhf
	basis 6-31G*
}


set_num_threads( 1 )
memory 2 gb

molecule MOL {
0 1

H	 -0.890397	 2.169344	 -0.141580
C	 -0.450599	 1.462986	 0.554824
N	 -0.528168	 0.128977	 -0.000000
H	 -1.020983	 1.508512	 1.475490
H	 0.569207	 1.795563	 0.766136
C	 0.248044	 -0.037491	 -1.209632
H	 -0.235397	 -0.539524	 0.684411
H	 0.998722	 0.743888	 -1.266824
H	 -0.398417	 0.061950	 -2.074060
H	 0.763621	 -0.999315	 -1.275517

	symmetry c1
}
ee = energy('scf')
oeprop('DIPOLE', 'QUADRUPOLE', 'MULLIKEN_CHARGES')
f=open( 'psi4out.xyz', 'w' )
f.write( "10  " )
f.write( str(ee) + "\n" )
f.write( MOL.save_string_xyz() )
f.close()
--------------------------------------------------------------------------

  Memory set to   2.000 GiB by Python script.

*** tstart() called on cx1-3-1-3.cx1.hpc.ic.ac.uk
*** at Tue Jul  5 16:21:15 2016


         ---------------------------------------------------------
                                   SCF
            by Justin Turney, Rob Parrish, and Andy Simmonett
                              RHF Reference
                        1 Threads,   2000 MiB Core
         ---------------------------------------------------------

  ==> Geometry <==

    Molecular point group: c1
    Full point group: C1

    Geometry (in Angstrom), charge = 0, multiplicity = 1:

       Center              X                  Y                   Z               Mass       
    ------------   -----------------  -----------------  -----------------  -----------------
           H         -0.667529030626     1.643585962188     0.073787026756     1.007825032070
           C         -0.227731030626     0.937227962188     0.770191026756    12.000000000000
           N         -0.305300030626    -0.396781037812     0.215367026756    14.003074004780
           H         -0.798115030626     0.982753962188     1.690857026756     1.007825032070
           H          0.792074969374     1.269804962188     0.981503026756     1.007825032070
           C          0.470911969374    -0.563249037812    -0.994264973244    12.000000000000
           H         -0.012529030626    -1.065282037812     0.899778026756     1.007825032070
           H          1.221589969374     0.218129962188    -1.051456973244     1.007825032070
           H         -0.175549030626    -0.463808037812    -1.858692973244     1.007825032070
           H          0.986488969374    -1.525073037812    -1.060149973244     1.007825032070

  Running in c1 symmetry.

  Rotational constants: A =      1.18674  B =      0.31278  C =      0.27693 [cm^-1]
  Rotational constants: A =  35577.59692  B =   9376.97707  C =   8302.24808 [MHz]
  Nuclear repulsion =   84.709555170390942

  Charge       = 0
  Multiplicity = 1
  Electrons    = 26
  Nalpha       = 13
  Nbeta        = 13

  ==> Algorithm <==

  SCF Algorithm Type is DF.
  DIIS enabled.
  MOM disabled.
  Fractional occupation disabled.
  Guess Type is CORE.
  Energy threshold   = 1.00e-06
  Density threshold  = 1.00e-06
  Integral threshold = 0.00e+00

  ==> Primary Basis <==

  Basis Set: 6-31G*
    Number of shells: 32
    Number of basis function: 59
    Number of Cartesian functions: 59
    Spherical Harmonics?: false
    Max angular momentum: 2

  ==> Pre-Iterations <==

   -------------------------------------------------------
    Irrep   Nso     Nmo     Nalpha   Nbeta   Ndocc  Nsocc
   -------------------------------------------------------
     A         59      59       0       0       0       0
   -------------------------------------------------------
    Total      59      59      13      13      13       0
   -------------------------------------------------------

 OEINTS: Overlap, kinetic, potential, dipole, and quadrupole integrals
         stored in file 35.

  ==> Integral Setup <==

  ==> DFJK: Density-Fitted J/K Matrices <==

    J tasked:                  Yes
    K tasked:                  Yes
    wK tasked:                  No
    OpenMP threads:              1
    Integrals threads:           1
    Memory (MB):              1430
    Algorithm:                Core
    Integral Cache:           NONE
    Schwarz Cutoff:          1E-12
    Fitting Condition:       1E-12

   => Auxiliary Basis Set <=

  Basis Set: 
    Number of shells: 135
    Number of basis function: 418
    Number of Cartesian functions: 418
    Spherical Harmonics?: false
    Max angular momentum: 3

  Minimum eigenvalue in the overlap matrix is 7.0592432217E-03.
  Using Symmetric Orthogonalization.
  SCF Guess: Core (One-Electron) Hamiltonian.

  ==> Iterations <==

                           Total Energy        Delta E     RMS |[F,P]|

   @DF-RHF iter   1:  -109.54180107978918   -1.09542e+02   9.12366e-02 
   @DF-RHF iter   2:  -114.76659042671783   -5.22479e+00   5.95630e-02 DIIS
   @DF-RHF iter   3:  -131.75610741198909   -1.69895e+01   3.92503e-02 DIIS
   @DF-RHF iter   4:  -133.69310995710543   -1.93700e+00   1.75616e-02 DIIS
   @DF-RHF iter   5:  -134.16614826758047   -4.73038e-01   6.41922e-03 DIIS
   @DF-RHF iter   6:  -134.23303020547098   -6.68819e-02   7.67760e-04 DIIS
   @DF-RHF iter   7:  -134.23416998343777   -1.13978e-03   1.48505e-04 DIIS
   @DF-RHF iter   8:  -134.23424116940060   -7.11860e-05   3.83643e-05 DIIS
   @DF-RHF iter   9:  -134.23424586480661   -4.69541e-06   7.74273e-06 DIIS
   @DF-RHF iter  10:  -134.23424613889262   -2.74086e-07   1.95160e-06 DIIS
   @DF-RHF iter  11:  -134.23424614996549   -1.10729e-08   6.12717e-07 DIIS

  ==> Post-Iterations <==

    Orbital Energies (a.u.)
    -----------------------

    Doubly Occupied:                                                      

       1A    -15.535865     2A    -11.236613     3A    -11.235135  
       4A     -1.198983     5A     -0.946833     6A     -0.854872  
       7A     -0.661263     8A     -0.614986     9A     -0.586846  
      10A     -0.544207    11A     -0.507783    12A     -0.506247  
      13A     -0.359118  

    Virtual:                                                              

      14A      0.230202    15A      0.278793    16A      0.299507  
      17A      0.315007    18A      0.323020    19A      0.334259  
      20A      0.348853    21A      0.405453    22A      0.456848  
      23A      0.733600    24A      0.761437    25A      0.782165  
      26A      0.807133    27A      0.845972    28A      0.935852  
      29A      1.010418    30A      1.097770    31A      1.109247  
      32A      1.135746    33A      1.162219    34A      1.208745  
      35A      1.214194    36A      1.230124    37A      1.251504  
      38A      1.256820    39A      1.264813    40A      1.565558  
      41A      1.669624    42A      1.731052    43A      1.782011  
      44A      2.125371    45A      2.224169    46A      2.344279  
      47A      2.377712    48A      2.418442    49A      2.457616  
      50A      2.538790    51A      2.603186    52A      2.754252  
      53A      2.778430    54A      2.820654    55A      3.034180  
      56A      3.126237    57A      4.327935    58A      4.654755  
      59A      4.732125  

    Final Occupation by Irrep:
              A 
    DOCC [    13 ]

  Energy converged.

  @DF-RHF Final Energy:  -134.23424614996549

   => Energetics <=

    Nuclear Repulsion Energy =             84.7095551703909422
    One-Electron Energy =                -348.3101773885451280
    Two-Electron Energy =                 129.3663760681885151
    DFT Exchange-Correlation Energy =       0.0000000000000000
    Empirical Dispersion Energy =           0.0000000000000000
    PCM Polarization Energy =               0.0000000000000000
    EFP Energy =                            0.0000000000000000
    Total Energy =                       -134.2342461499656565

    Alert: EFP and PCM quantities not currently incorporated into SCF psivars.

Properties will be evaluated at   0.000000,   0.000000,   0.000000 Bohr
  ==> Properties <==


Properties computed using the SCF density matrix

  Nuclear Dipole Moment: (a.u.)
     X:     1.2631      Y:     0.9950      Z:    -0.3047

  Electronic Dipole Moment: (a.u.)
     X:    -0.7979      Y:    -0.9749      Z:     0.4680

  Dipole Moment: (a.u.)
     X:     0.4652      Y:     0.0201      Z:     0.1633     Total:     0.4935

  Dipole Moment: (Debye)
     X:     1.1825      Y:     0.0510      Z:     0.4149     Total:     1.2543


  Saving occupied orbitals to File 180.

*** tstop() called on cx1-3-1-3.cx1.hpc.ic.ac.uk at Tue Jul  5 16:21:17 2016
Module time:
	user time   =       1.81 seconds =       0.03 minutes
	system time =       0.02 seconds =       0.00 minutes
	total time  =          2 seconds =       0.03 minutes
Total time:
	user time   =       1.81 seconds =       0.03 minutes
	system time =       0.02 seconds =       0.00 minutes
	total time  =          2 seconds =       0.03 minutes


Properties will be evaluated at   0.000000,   0.000000,   0.000000 Bohr

Properties computed using the  density matrix

  Nuclear Dipole Moment: (a.u.)
     X:     1.2631      Y:     0.9950      Z:    -0.3047

  Electronic Dipole Moment: (a.u.)
     X:    -0.7979      Y:    -0.9749      Z:     0.4680

  Dipole Moment: (a.u.)
     X:     0.4652      Y:     0.0201      Z:     0.1633     Total:     0.4935

  Dipole Moment: (Debye)
     X:     1.1825      Y:     0.0510      Z:     0.4149     Total:     1.2543

  Quadrupole Moment: (Debye Ang)
    XX:   -22.4189     YY:   -19.7476     ZZ:   -19.4313
    XY:    -1.4615     XZ:    -0.1180     YZ:    -0.3720

  Traceless Quadrupole Moment: (Debye Ang)
    XX:    -1.8863     YY:     0.7850     ZZ:     1.1013
    XY:    -1.4615     XZ:    -0.1180     YZ:    -0.3720

  Mulliken Charges: (a.u.)
   Center  Symbol    Alpha    Beta     Spin     Total
       1     H     0.41737  0.41737  0.00000  0.16527
       2     C     3.14623  3.14623  0.00000 -0.29246
       3     N     3.84014  3.84014  0.00000 -0.68028
       4     H     0.41692  0.41692  0.00000  0.16616
       5     H     0.43416  0.43416  0.00000  0.13169
       6     C     3.14596  3.14596  0.00000 -0.29192
       7     H     0.33180  0.33180  0.00000  0.33641
       8     H     0.42969  0.42969  0.00000  0.14063
       9     H     0.41651  0.41651  0.00000  0.16699
      10     H     0.42124  0.42124  0.00000  0.15751

   Total alpha = 13.00000, Total beta = 13.00000, Total charge =  0.00000


*** PSI4 exiting successfully. Buy a developer a beer!
