    -----------------------------------------------------------------------
          Psi4: An Open-Source Ab Initio Electronic Structure Package
                              Psi4 (no tag) Driver

                          Git: Rev {detached?}  

    J. M. Turney, A. C. Simmonett, R. M. Parrish, E. G. Hohenstein,
    F. A. Evangelista, J. T. Fermann, B. J. Mintz, L. A. Burns, J. J. Wilke,
    M. L. Abrams, N. J. Russ, M. L. Leininger, C. L. Janssen, E. T. Seidl,
    W. D. Allen, H. F. Schaefer, R. A. King, E. F. Valeev, C. D. Sherrill,
    and T. D. Crawford, WIREs Comput. Mol. Sci. 2, 556-565 (2012)
    (doi: 10.1002/wcms.93)

                         Additional Contributions by
    A. E. DePrince, M. Saitow, U. Bozkaya, A. Yu. Sokolov
    -----------------------------------------------------------------------


    Psi4 started on: Tue Jul  5 16:23:26 2016

    Process ID:  26006
    PSI4DATADIR: /export131/home/mjharvey/miniconda3/share
    Memory level set to 256.000 MB

  ==> Input File <==

--------------------------------------------------------------------------
set {
	reference rhf
	basis 6-31G*
}


set_num_threads( 1 )
memory 2 gb

molecule MOL {
0 1

H	 -0.216825	 0.021369	 -3.357402
C	 0.374198	 0.036393	 -2.447010
C	 -0.521757	 -0.028637	 -1.217342
H	 0.969602	 0.942322	 -2.434777
H	 1.053364	 -0.811668	 -2.481329
N	 0.263400	 0.031178	 0.000000
H	 -1.199035	 0.820290	 -1.219355
H	 -1.147901	 -0.924895	 -1.265384
C	 -0.521757	 -0.028637	 1.217342
H	 0.935769	 -0.712709	 0.000000
C	 -1.133618	 1.328513	 1.537994
H	 -1.314735	 -0.755318	 1.067313
H	 0.062918	 -0.380011	 2.073107
H	 -1.751805	 1.669587	 0.715269
H	 -1.745199	 1.275244	 2.433247
H	 -0.361973	 2.074523	 1.710285

	symmetry c1
}
ee = energy('scf')
oeprop('DIPOLE', 'QUADRUPOLE', 'MULLIKEN_CHARGES')
f=open( 'psi4out.xyz', 'w' )
f.write( "16  " )
f.write( str(ee) + "\n" )
f.write( MOL.save_string_xyz() )
f.close()
--------------------------------------------------------------------------

  Memory set to   2.000 GiB by Python script.

*** tstart() called on cx1-3-1-3.cx1.hpc.ic.ac.uk
*** at Tue Jul  5 16:23:26 2016


         ---------------------------------------------------------
                                   SCF
            by Justin Turney, Rob Parrish, and Andy Simmonett
                              RHF Reference
                        1 Threads,   2000 MiB Core
         ---------------------------------------------------------

  ==> Geometry <==

    Molecular point group: c1
    Full point group: C1

    Geometry (in Angstrom), charge = 0, multiplicity = 1:

       Center              X                  Y                   Z               Mass       
    ------------   -----------------  -----------------  -----------------  -----------------
           H          0.093748046060    -0.243678448334    -3.170112811560     1.007825032070
           C          0.684771046060    -0.228654448334    -2.259720811560    12.000000000000
           C         -0.211183953940    -0.293684448334    -1.030052811560    12.000000000000
           H          1.280175046060     0.677274551666    -2.247487811560     1.007825032070
           H          1.363937046060    -1.076715448334    -2.294039811560     1.007825032070
           N          0.573973046060    -0.233869448334     0.187289188440    14.003074004780
           H         -0.888461953940     0.555242551666    -1.032065811560     1.007825032070
           H         -0.837327953940    -1.189942448334    -1.078094811560     1.007825032070
           C         -0.211183953940    -0.293684448334     1.404631188440    12.000000000000
           H          1.246342046060    -0.977756448334     0.187289188440     1.007825032070
           C         -0.823044953940     1.063465551666     1.725283188440    12.000000000000
           H         -1.004161953940    -1.020365448334     1.254602188440     1.007825032070
           H          0.373491046060    -0.645058448334     2.260396188440     1.007825032070
           H         -1.441231953940     1.404539551666     0.902558188440     1.007825032070
           H         -1.434625953940     1.010196551666     2.620536188440     1.007825032070
           H         -0.051399953940     1.809475551666     1.897574188440     1.007825032070

  Running in c1 symmetry.

  Rotational constants: A =      0.42559  B =      0.08085  C =      0.07571 [cm^-1]
  Rotational constants: A =  12758.90300  B =   2423.71774  C =   2269.86821 [MHz]
  Nuclear repulsion =  191.668537844042561

  Charge       = 0
  Multiplicity = 1
  Electrons    = 42
  Nalpha       = 21
  Nbeta        = 21

  ==> Algorithm <==

  SCF Algorithm Type is DF.
  DIIS enabled.
  MOM disabled.
  Fractional occupation disabled.
  Guess Type is CORE.
  Energy threshold   = 1.00e-06
  Density threshold  = 1.00e-06
  Integral threshold = 0.00e+00

  ==> Primary Basis <==

  Basis Set: 6-31G*
    Number of shells: 52
    Number of basis function: 97
    Number of Cartesian functions: 97
    Spherical Harmonics?: false
    Max angular momentum: 2

  ==> Pre-Iterations <==

   -------------------------------------------------------
    Irrep   Nso     Nmo     Nalpha   Nbeta   Ndocc  Nsocc
   -------------------------------------------------------
     A         97      97       0       0       0       0
   -------------------------------------------------------
    Total      97      97      21      21      21       0
   -------------------------------------------------------

 OEINTS: Overlap, kinetic, potential, dipole, and quadrupole integrals
         stored in file 35.

  ==> Integral Setup <==

  ==> DFJK: Density-Fitted J/K Matrices <==

    J tasked:                  Yes
    K tasked:                  Yes
    wK tasked:                  No
    OpenMP threads:              1
    Integrals threads:           1
    Memory (MB):              1430
    Algorithm:                Core
    Integral Cache:           NONE
    Schwarz Cutoff:          1E-12
    Fitting Condition:       1E-12

   => Auxiliary Basis Set <=

  Basis Set: 
    Number of shells: 219
    Number of basis function: 680
    Number of Cartesian functions: 680
    Spherical Harmonics?: false
    Max angular momentum: 3

  Minimum eigenvalue in the overlap matrix is 4.5772719548E-03.
  Using Symmetric Orthogonalization.
  SCF Guess: Core (One-Electron) Hamiltonian.

  ==> Iterations <==

                           Total Energy        Delta E     RMS |[F,P]|

   @DF-RHF iter   1:  -158.23155009229006   -1.58232e+02   8.02855e-02 
   @DF-RHF iter   2:  -143.97359191412218    1.42580e+01   6.04133e-02 DIIS
   @DF-RHF iter   3:  -183.46890846113607   -3.94953e+01   5.02694e-02 DIIS
   @DF-RHF iter   4:  -203.05002856131225   -1.95811e+01   3.79067e-02 DIIS
   @DF-RHF iter   5:  -211.98507679579134   -8.93505e+00   7.81487e-03 DIIS
   @DF-RHF iter   6:  -212.25833792315703   -2.73261e-01   2.92591e-03 DIIS
   @DF-RHF iter   7:  -212.30433725963221   -4.59993e-02   8.15274e-04 DIIS
   @DF-RHF iter   8:  -212.30961647104309   -5.27921e-03   2.05375e-04 DIIS
   @DF-RHF iter   9:  -212.30994074089730   -3.24270e-04   7.10326e-05 DIIS
   @DF-RHF iter  10:  -212.30997948580702   -3.87449e-05   2.75057e-05 DIIS
   @DF-RHF iter  11:  -212.30998503644409   -5.55064e-06   7.70030e-06 DIIS
   @DF-RHF iter  12:  -212.30998545203650   -4.15592e-07   1.32495e-06 DIIS
   @DF-RHF iter  13:  -212.30998546865706   -1.66206e-08   3.52258e-07 DIIS

  ==> Post-Iterations <==

    Orbital Energies (a.u.)
    -----------------------

    Doubly Occupied:                                                      

       1A    -15.533273     2A    -11.241107     3A    -11.240732  
       4A    -11.208773     5A    -11.203105     6A     -1.205832  
       7A     -1.023983     8A     -0.965622     9A     -0.844880  
      10A     -0.802655    11A     -0.665500    12A     -0.625334  
      13A     -0.615310    14A     -0.580932    15A     -0.538265  
      16A     -0.528094    17A     -0.506752    18A     -0.494822  
      19A     -0.482198    20A     -0.466313    21A     -0.358216  

    Virtual:                                                              

      22A      0.232163    23A      0.256880    24A      0.262353  
      25A      0.289890    26A      0.321462    27A      0.323888  
      28A      0.327763    29A      0.331385    30A      0.345882  
      31A      0.351889    32A      0.387239    33A      0.418610  
      34A      0.424828    35A      0.436550    36A      0.468941  
      37A      0.707903    38A      0.726212    39A      0.750771  
      40A      0.765706    41A      0.769558    42A      0.799149  
      43A      0.844430    44A      0.909001    45A      0.946900  
      46A      0.951991    47A      0.964388    48A      1.037793  
      49A      1.087833    50A      1.132186    51A      1.146325  
      52A      1.157507    53A      1.176884    54A      1.180501  
      55A      1.192338    56A      1.201708    57A      1.226313  
      58A      1.235965    59A      1.249010    60A      1.272778  
      61A      1.296603    62A      1.322911    63A      1.352678  
      64A      1.543134    65A      1.584770    66A      1.699572  
      67A      1.727533    68A      1.846803    69A      1.889407  
      70A      1.925472    71A      2.036668    72A      2.162725  
      73A      2.178629    74A      2.256207    75A      2.280314  
      76A      2.293719    77A      2.326085    78A      2.367116  
      79A      2.447454    80A      2.526186    81A      2.538496  
      82A      2.586662    83A      2.650661    84A      2.667568  
      85A      2.697457    86A      2.744293    87A      2.790005  
      88A      2.837559    89A      2.973399    90A      3.033441  
      91A      3.123372    92A      3.209910    93A      4.360132  
      94A      4.631757    95A      4.640395    96A      4.837221  
      97A      4.899342  

    Final Occupation by Irrep:
              A 
    DOCC [    21 ]

  Energy converged.

  @DF-RHF Final Energy:  -212.30998546865706

   => Energetics <=

    Nuclear Repulsion Energy =            191.6685378440425609
    One-Electron Energy =                -665.6936271716326701
    Two-Electron Energy =                 261.7151038589331620
    DFT Exchange-Correlation Energy =       0.0000000000000000
    Empirical Dispersion Energy =           0.0000000000000000
    PCM Polarization Energy =               0.0000000000000000
    EFP Energy =                            0.0000000000000000
    Total Energy =                       -212.3099854686569188

    Alert: EFP and PCM quantities not currently incorporated into SCF psivars.

Properties will be evaluated at   0.000000,   0.000000,   0.000000 Bohr
  ==> Properties <==


Properties computed using the SCF density matrix

  Nuclear Dipole Moment: (a.u.)
     X:    -1.2199      Y:     0.2849      Z:    -0.6557

  Electronic Dipole Moment: (a.u.)
     X:     1.0883      Y:    -0.6825      Z:     0.6488

  Dipole Moment: (a.u.)
     X:    -0.1317      Y:    -0.3976      Z:    -0.0069     Total:     0.4189

  Dipole Moment: (Debye)
     X:    -0.3346      Y:    -1.0106      Z:    -0.0175     Total:     1.0647


  Saving occupied orbitals to File 180.

*** tstop() called on cx1-3-1-3.cx1.hpc.ic.ac.uk at Tue Jul  5 16:23:31 2016
Module time:
	user time   =       5.04 seconds =       0.08 minutes
	system time =       0.03 seconds =       0.00 minutes
	total time  =          5 seconds =       0.08 minutes
Total time:
	user time   =       5.04 seconds =       0.08 minutes
	system time =       0.03 seconds =       0.00 minutes
	total time  =          5 seconds =       0.08 minutes


Properties will be evaluated at   0.000000,   0.000000,   0.000000 Bohr

Properties computed using the  density matrix

  Nuclear Dipole Moment: (a.u.)
     X:    -1.2199      Y:     0.2849      Z:    -0.6557

  Electronic Dipole Moment: (a.u.)
     X:     1.0883      Y:    -0.6825      Z:     0.6488

  Dipole Moment: (a.u.)
     X:    -0.1317      Y:    -0.3976      Z:    -0.0069     Total:     0.4189

  Dipole Moment: (Debye)
     X:    -0.3346      Y:    -1.0106      Z:    -0.0175     Total:     1.0647

  Quadrupole Moment: (Debye Ang)
    XX:   -34.5832     YY:   -33.8915     ZZ:   -33.0872
    XY:    -1.7116     XZ:     0.4118     YZ:    -0.5206

  Traceless Quadrupole Moment: (Debye Ang)
    XX:    -0.7292     YY:    -0.0375     ZZ:     0.7668
    XY:    -1.7116     XZ:     0.4118     YZ:    -0.5206

  Mulliken Charges: (a.u.)
   Center  Symbol    Alpha    Beta     Spin     Total
       1     H     0.42019  0.42019  0.00000  0.15962
       2     C     3.24125  3.24125  0.00000 -0.48250
       3     C     3.05758  3.05758  0.00000 -0.11516
       4     H     0.41171  0.41171  0.00000  0.17658
       5     H     0.42478  0.42478  0.00000  0.15045
       6     N     3.84724  3.84724  0.00000 -0.69447
       7     H     0.41910  0.41910  0.00000  0.16180
       8     H     0.43489  0.43489  0.00000  0.13021
       9     C     3.06251  3.06251  0.00000 -0.12502
      10     H     0.33314  0.33314  0.00000  0.33373
      11     C     3.23449  3.23449  0.00000 -0.46899
      12     H     0.43338  0.43338  0.00000  0.13325
      13     H     0.41939  0.41939  0.00000  0.16122
      14     H     0.42112  0.42112  0.00000  0.15777
      15     H     0.42402  0.42402  0.00000  0.15196
      16     H     0.41522  0.41522  0.00000  0.16956

   Total alpha = 21.00000, Total beta = 21.00000, Total charge = -0.00000


*** PSI4 exiting successfully. Buy a developer a beer!
