    -----------------------------------------------------------------------
          Psi4: An Open-Source Ab Initio Electronic Structure Package
                              Psi4 (no tag) Driver

                          Git: Rev {detached?}  

    J. M. Turney, A. C. Simmonett, R. M. Parrish, E. G. Hohenstein,
    F. A. Evangelista, J. T. Fermann, B. J. Mintz, L. A. Burns, J. J. Wilke,
    M. L. Abrams, N. J. Russ, M. L. Leininger, C. L. Janssen, E. T. Seidl,
    W. D. Allen, H. F. Schaefer, R. A. King, E. F. Valeev, C. D. Sherrill,
    and T. D. Crawford, WIREs Comput. Mol. Sci. 2, 556-565 (2012)
    (doi: 10.1002/wcms.93)

                         Additional Contributions by
    A. E. DePrince, M. Saitow, U. Bozkaya, A. Yu. Sokolov
    -----------------------------------------------------------------------


    Psi4 started on: Tue Jul  5 16:26:43 2016

    Process ID:   3700
    PSI4DATADIR: /export131/home/mjharvey/miniconda3/share
    Memory level set to 256.000 MB

  ==> Input File <==

--------------------------------------------------------------------------
set {
	reference rhf
	basis 6-31G*
}


set_num_threads( 1 )
memory 2 gb

molecule MOL {
0 1

H	 -0.687322	 1.985602	 0.911572
C	 0.041532	 1.201878	 1.123315
N	 0.538815	 0.649616	 0.000000
O	 0.337030	 0.898416	 2.241260
C	 1.521968	 -0.411503	 0.000000
H	 0.207592	 0.995048	 -0.871351
H	 2.150599	 -0.357004	 -0.881901
H	 0.999455	 -1.354525	 0.000000
H	 2.150599	 -0.357004	 0.881901

	symmetry c1
}
set optking {
	frozen_dihedral = ("
		1 2 3 6
	")
}

ee = energy('scf')
oeprop('DIPOLE', 'QUADRUPOLE', 'MULLIKEN_CHARGES')
f=open( 'psi4out.xyz', 'w' )
f.write( "9  " )
f.write( str(ee) + "\n" )
f.write( MOL.save_string_xyz() )
f.close()
--------------------------------------------------------------------------

  Memory set to   2.000 GiB by Python script.

*** tstart() called on cx1-1-4-3.cx1.hpc.ic.ac.uk
*** at Tue Jul  5 16:26:44 2016


         ---------------------------------------------------------
                                   SCF
            by Justin Turney, Rob Parrish, and Andy Simmonett
                              RHF Reference
                        1 Threads,   2000 MiB Core
         ---------------------------------------------------------

  ==> Geometry <==

    Molecular point group: c1
    Full point group: C1

    Geometry (in Angstrom), charge = 0, multiplicity = 1:

       Center              X                  Y                   Z               Mass       
    ------------   -----------------  -----------------  -----------------  -----------------
           H         -1.306533830113     1.411887258391     0.075333998073     1.007825032070
           C         -0.577679830113     0.628163258391     0.287076998073    12.000000000000
           N         -0.080396830113     0.075901258391    -0.836238001927    14.003074004780
           O         -0.282181830113     0.324701258391     1.405021998073    15.994914619560
           C          0.902756169887    -0.985217741609    -0.836238001927    12.000000000000
           H         -0.411619830113     0.421333258391    -1.707589001927     1.007825032070
           H          1.531387169887    -0.930718741609    -1.718139001927     1.007825032070
           H          0.380243169887    -1.928239741609    -0.836238001927     1.007825032070
           H          1.531387169887    -0.930718741609     0.045662998073     1.007825032070

  Running in c1 symmetry.

  Rotational constants: A =      0.68478  B =      0.20544  C =      0.16278 [cm^-1]
  Rotational constants: A =  20529.15347  B =   6158.83719  C =   4880.04271 [MHz]
  Nuclear repulsion =  122.379045563384921

  Charge       = 0
  Multiplicity = 1
  Electrons    = 32
  Nalpha       = 16
  Nbeta        = 16

  ==> Algorithm <==

  SCF Algorithm Type is DF.
  DIIS enabled.
  MOM disabled.
  Fractional occupation disabled.
  Guess Type is CORE.
  Energy threshold   = 1.00e-06
  Density threshold  = 1.00e-06
  Integral threshold = 0.00e+00

  ==> Primary Basis <==

  Basis Set: 6-31G*
    Number of shells: 34
    Number of basis function: 70
    Number of Cartesian functions: 70
    Spherical Harmonics?: false
    Max angular momentum: 2

  ==> Pre-Iterations <==

   -------------------------------------------------------
    Irrep   Nso     Nmo     Nalpha   Nbeta   Ndocc  Nsocc
   -------------------------------------------------------
     A         70      70       0       0       0       0
   -------------------------------------------------------
    Total      70      70      16      16      16       0
   -------------------------------------------------------

 OEINTS: Overlap, kinetic, potential, dipole, and quadrupole integrals
         stored in file 35.

  ==> Integral Setup <==

  ==> DFJK: Density-Fitted J/K Matrices <==

    J tasked:                  Yes
    K tasked:                  Yes
    wK tasked:                  No
    OpenMP threads:              1
    Integrals threads:           1
    Memory (MB):              1430
    Algorithm:                Core
    Integral Cache:           NONE
    Schwarz Cutoff:          1E-12
    Fitting Condition:       1E-12

   => Auxiliary Basis Set <=

  Basis Set: 
    Number of shells: 141
    Number of basis function: 449
    Number of Cartesian functions: 449
    Spherical Harmonics?: false
    Max angular momentum: 3

  Minimum eigenvalue in the overlap matrix is 4.6041716069E-03.
  Using Symmetric Orthogonalization.
  SCF Guess: Core (One-Electron) Hamiltonian.

  ==> Iterations <==

                           Total Energy        Delta E     RMS |[F,P]|

   @DF-RHF iter   1:  -166.87519099512190   -1.66875e+02   9.45767e-02 
   @DF-RHF iter   2:  -130.78809747850934    3.60871e+01   8.37397e-02 DIIS
   @DF-RHF iter   3:  -190.30257685296601   -5.95145e+01   5.30638e-02 DIIS
   @DF-RHF iter   4:  -206.96892148851373   -1.66663e+01   2.02978e-02 DIIS
   @DF-RHF iter   5:  -207.90096125269838   -9.32040e-01   5.20388e-03 DIIS
   @DF-RHF iter   6:  -207.95715836719512   -5.61971e-02   1.00761e-03 DIIS
   @DF-RHF iter   7:  -207.95996986212498   -2.81149e-03   2.34568e-04 DIIS
   @DF-RHF iter   8:  -207.96019191075277   -2.22049e-04   7.63335e-05 DIIS
   @DF-RHF iter   9:  -207.96021454876495   -2.26380e-05   1.83771e-05 DIIS
   @DF-RHF iter  10:  -207.96021635133951   -1.80257e-06   7.15097e-06 DIIS
   @DF-RHF iter  11:  -207.96021653722698   -1.85887e-07   2.81624e-06 DIIS
   @DF-RHF iter  12:  -207.96021657887923   -4.16522e-08   1.37806e-06 DIIS
   @DF-RHF iter  13:  -207.96021658747554   -8.59632e-09   3.41921e-07 DIIS

  ==> Post-Iterations <==

    Orbital Energies (a.u.)
    -----------------------

    Doubly Occupied:                                                      

       1A    -20.525139     2A    -15.590695     3A    -11.343372  
       4A    -11.261539     5A     -1.388115     6A     -1.236456  
       7A     -0.969221     8A     -0.806735     9A     -0.745642  
      10A     -0.641307    11A     -0.628157    12A     -0.593157  
      13A     -0.556187    14A     -0.535072    15A     -0.422939  
      16A     -0.389933  

    Virtual:                                                              

      17A      0.212449    18A      0.220274    19A      0.265279  
      20A      0.295639    21A      0.316791    22A      0.330850  
      23A      0.388216    24A      0.443249    25A      0.566114  
      26A      0.715238    27A      0.724979    28A      0.776284  
      29A      0.800416    30A      0.843045    31A      0.959519  
      32A      1.004007    33A      1.026867    34A      1.073414  
      35A      1.093849    36A      1.117405    37A      1.147234  
      38A      1.188014    39A      1.204884    40A      1.220426  
      41A      1.314869    42A      1.335448    43A      1.406829  
      44A      1.579020    45A      1.601584    46A      1.636056  
      47A      1.710637    48A      1.808309    49A      1.861710  
      50A      2.059858    51A      2.130151    52A      2.179938  
      53A      2.219359    54A      2.331666    55A      2.366366  
      56A      2.451957    57A      2.526847    58A      2.602746  
      59A      2.684279    60A      2.697994    61A      2.840864  
      62A      2.933815    63A      3.041158    64A      3.120573  
      65A      3.329047    66A      3.493590    67A      4.242426  
      68A      4.398716    69A      4.581810    70A      4.736808  

    Final Occupation by Irrep:
              A 
    DOCC [    16 ]

  Energy converged.

  @DF-RHF Final Energy:  -207.96021658747554

   => Energetics <=

    Nuclear Repulsion Energy =            122.3790455633849206
    One-Electron Energy =                -525.4111878597200302
    Two-Electron Energy =                 195.0719257088594247
    DFT Exchange-Correlation Energy =       0.0000000000000000
    Empirical Dispersion Energy =           0.0000000000000000
    PCM Polarization Energy =               0.0000000000000000
    EFP Energy =                            0.0000000000000000
    Total Energy =                       -207.9602165874756849

    Alert: EFP and PCM quantities not currently incorporated into SCF psivars.

Properties will be evaluated at   0.000000,   0.000000,   0.000000 Bohr
  ==> Properties <==


Properties computed using the SCF density matrix

  Nuclear Dipole Moment: (a.u.)
     X:     1.6159      Y:    -1.8328      Z:    -3.8729

  Electronic Dipole Moment: (a.u.)
     X:    -1.6526      Y:     1.8841      Z:     2.2519

  Dipole Moment: (a.u.)
     X:    -0.0367      Y:     0.0513      Z:    -1.6210     Total:     1.6222

  Dipole Moment: (Debye)
     X:    -0.0933      Y:     0.1304      Z:    -4.1201     Total:     4.1232


  Saving occupied orbitals to File 180.

*** tstop() called on cx1-1-4-3.cx1.hpc.ic.ac.uk at Tue Jul  5 16:26:47 2016
Module time:
	user time   =       2.89 seconds =       0.05 minutes
	system time =       0.03 seconds =       0.00 minutes
	total time  =          3 seconds =       0.05 minutes
Total time:
	user time   =       2.89 seconds =       0.05 minutes
	system time =       0.03 seconds =       0.00 minutes
	total time  =          3 seconds =       0.05 minutes


Properties will be evaluated at   0.000000,   0.000000,   0.000000 Bohr

Properties computed using the  density matrix

  Nuclear Dipole Moment: (a.u.)
     X:     1.6159      Y:    -1.8328      Z:    -3.8729

  Electronic Dipole Moment: (a.u.)
     X:    -1.6526      Y:     1.8841      Z:     2.2519

  Dipole Moment: (a.u.)
     X:    -0.0367      Y:     0.0513      Z:    -1.6210     Total:     1.6222

  Dipole Moment: (Debye)
     X:    -0.0933      Y:     0.1304      Z:    -4.1201     Total:     4.1232

  Quadrupole Moment: (Debye Ang)
    XX:   -22.5249     YY:   -22.6553     ZZ:   -26.5085
    XY:    -2.0977     XZ:     0.8831     YZ:    -0.9916

  Traceless Quadrupole Moment: (Debye Ang)
    XX:     1.3714     YY:     1.2409     ZZ:    -2.6123
    XY:    -2.0977     XZ:     0.8831     YZ:    -0.9916

  Mulliken Charges: (a.u.)
   Center  Symbol    Alpha    Beta     Spin     Total
       1     H     0.42819  0.42819  0.00000  0.14362
       2     C     2.74535  2.74535  0.00000  0.50930
       3     N     3.87566  3.87566  0.00000 -0.75132
       4     O     4.28370  4.28370  0.00000 -0.56739
       5     C     3.14145  3.14145  0.00000 -0.28289
       6     H     0.30847  0.30847  0.00000  0.38307
       7     H     0.41438  0.41438  0.00000  0.17124
       8     H     0.41040  0.41040  0.00000  0.17920
       9     H     0.39242  0.39242  0.00000  0.21517

   Total alpha = 16.00000, Total beta = 16.00000, Total charge = -0.00000


*** PSI4 exiting successfully. Buy a developer a beer!
