    -----------------------------------------------------------------------
          Psi4: An Open-Source Ab Initio Electronic Structure Package
                              Psi4 (no tag) Driver

                          Git: Rev {detached?}  

    J. M. Turney, A. C. Simmonett, R. M. Parrish, E. G. Hohenstein,
    F. A. Evangelista, J. T. Fermann, B. J. Mintz, L. A. Burns, J. J. Wilke,
    M. L. Abrams, N. J. Russ, M. L. Leininger, C. L. Janssen, E. T. Seidl,
    W. D. Allen, H. F. Schaefer, R. A. King, E. F. Valeev, C. D. Sherrill,
    and T. D. Crawford, WIREs Comput. Mol. Sci. 2, 556-565 (2012)
    (doi: 10.1002/wcms.93)

                         Additional Contributions by
    A. E. DePrince, M. Saitow, U. Bozkaya, A. Yu. Sokolov
    -----------------------------------------------------------------------


    Psi4 started on: Tue Jul  5 16:41:32 2016

    Process ID:  25664
    PSI4DATADIR: /export131/home/mjharvey/miniconda3/share
    Memory level set to 256.000 MB

  ==> Input File <==

--------------------------------------------------------------------------
set {
	reference rhf
	basis 6-31G*
}


set_num_threads( 1 )
memory 2 gb

molecule MOL {
0 1

H	 -2.252813	 1.011622	 -1.339960
C	 -1.251893	 0.598608	 -1.386892
C	 -0.603454	 0.661669	 0.000000
H	 -0.680017	 1.168827	 -2.108868
H	 -1.319915	 -0.424164	 -1.737252
C	 0.763625	 0.112519	 0.000000
H	 -0.550874	 1.685072	 0.352777
H	 -1.186717	 0.102175	 0.722039
N	 1.813038	 -0.320305	 0.000000

	symmetry c1
}
ee = energy('scf')
oeprop('DIPOLE', 'QUADRUPOLE', 'MULLIKEN_CHARGES')
f=open( 'psi4out.xyz', 'w' )
f.write( "9  " )
f.write( str(ee) + "\n" )
f.write( MOL.save_string_xyz() )
f.close()
--------------------------------------------------------------------------

  Memory set to   2.000 GiB by Python script.

*** tstart() called on cx1-3-16-4.cx1.hpc.ic.ac.uk
*** at Tue Jul  5 16:41:33 2016


         ---------------------------------------------------------
                                   SCF
            by Justin Turney, Rob Parrish, and Andy Simmonett
                              RHF Reference
                        1 Threads,   2000 MiB Core
         ---------------------------------------------------------

  ==> Geometry <==

    Molecular point group: c1
    Full point group: C1

    Geometry (in Angstrom), charge = 0, multiplicity = 1:

       Center              X                  Y                   Z               Mass       
    ------------   -----------------  -----------------  -----------------  -----------------
           H         -2.366366433747     0.728937843690    -0.962319951311     1.007825032070
           C         -1.365446433747     0.315923843690    -1.009251951311    12.000000000000
           C         -0.717007433747     0.378984843690     0.377640048689    12.000000000000
           H         -0.793570433747     0.886142843690    -1.731227951311     1.007825032070
           H         -1.433468433747    -0.706848156310    -1.359611951311     1.007825032070
           C          0.650071566253    -0.170165156310     0.377640048689    12.000000000000
           H         -0.664427433747     1.402387843690     0.730417048689     1.007825032070
           H         -1.300270433747    -0.180509156310     1.099679048689     1.007825032070
           N          1.699484566253    -0.602989156310     0.377640048689    14.003074004780

  Running in c1 symmetry.

  Rotational constants: A =      0.94482  B =      0.15722  C =      0.14179 [cm^-1]
  Rotational constants: A =  28325.13472  B =   4713.23466  C =   4250.89572 [MHz]
  Nuclear repulsion =  103.397046019038399

  Charge       = 0
  Multiplicity = 1
  Electrons    = 30
  Nalpha       = 15
  Nbeta        = 15

  ==> Algorithm <==

  SCF Algorithm Type is DF.
  DIIS enabled.
  MOM disabled.
  Fractional occupation disabled.
  Guess Type is CORE.
  Energy threshold   = 1.00e-06
  Density threshold  = 1.00e-06
  Integral threshold = 0.00e+00

  ==> Primary Basis <==

  Basis Set: 6-31G*
    Number of shells: 34
    Number of basis function: 70
    Number of Cartesian functions: 70
    Spherical Harmonics?: false
    Max angular momentum: 2

  ==> Pre-Iterations <==

   -------------------------------------------------------
    Irrep   Nso     Nmo     Nalpha   Nbeta   Ndocc  Nsocc
   -------------------------------------------------------
     A         70      70       0       0       0       0
   -------------------------------------------------------
    Total      70      70      15      15      15       0
   -------------------------------------------------------

 OEINTS: Overlap, kinetic, potential, dipole, and quadrupole integrals
         stored in file 35.

  ==> Integral Setup <==

  ==> DFJK: Density-Fitted J/K Matrices <==

    J tasked:                  Yes
    K tasked:                  Yes
    wK tasked:                  No
    OpenMP threads:              1
    Integrals threads:           1
    Memory (MB):              1430
    Algorithm:                Core
    Integral Cache:           NONE
    Schwarz Cutoff:          1E-12
    Fitting Condition:       1E-12

   => Auxiliary Basis Set <=

  Basis Set: 
    Number of shells: 141
    Number of basis function: 449
    Number of Cartesian functions: 449
    Spherical Harmonics?: false
    Max angular momentum: 3

  Minimum eigenvalue in the overlap matrix is 1.3870972789E-03.
  Using Symmetric Orthogonalization.
  SCF Guess: Core (One-Electron) Hamiltonian.

  ==> Iterations <==

                           Total Energy        Delta E     RMS |[F,P]|

   @DF-RHF iter   1:  -133.96069548804428   -1.33961e+02   8.77751e-02 
   @DF-RHF iter   2:  -109.99626532738621    2.39644e+01   8.01997e-02 DIIS
   @DF-RHF iter   3:  -154.24855620615153   -4.42523e+01   4.92162e-02 DIIS
   @DF-RHF iter   4:  -159.49621587721549   -5.24766e+00   4.62818e-02 DIIS
   @DF-RHF iter   5:  -170.63859311952842   -1.11424e+01   1.15808e-02 DIIS
   @DF-RHF iter   6:  -170.89846916741271   -2.59876e-01   5.66351e-03 DIIS
   @DF-RHF iter   7:  -170.96012853764813   -6.16594e-02   7.28034e-04 DIIS
   @DF-RHF iter   8:  -170.96207404973001   -1.94551e-03   3.25395e-04 DIIS
   @DF-RHF iter   9:  -170.96237927916593   -3.05229e-04   6.88152e-05 DIIS
   @DF-RHF iter  10:  -170.96241190445636   -3.26253e-05   2.88322e-05 DIIS
   @DF-RHF iter  11:  -170.96242188749250   -9.98304e-06   1.37631e-05 DIIS
   @DF-RHF iter  12:  -170.96242491204112   -3.02455e-06   4.13910e-06 DIIS
   @DF-RHF iter  13:  -170.96242514747792   -2.35437e-07   1.17754e-06 DIIS
   @DF-RHF iter  14:  -170.96242516071891   -1.32410e-08   3.47295e-07 DIIS

  ==> Post-Iterations <==

    Orbital Energies (a.u.)
    -----------------------

    Doubly Occupied:                                                      

       1A    -15.567052     2A    -11.283670     3A    -11.269385  
       4A    -11.245861     5A     -1.224545     6A     -1.082277  
       7A     -0.911747     8A     -0.699405     9A     -0.659444  
      10A     -0.587705    11A     -0.560809    12A     -0.543924  
      13A     -0.536589    14A     -0.458564    15A     -0.458484  

    Virtual:                                                              

      16A      0.195104    17A      0.215060    18A      0.243762  
      19A      0.279573    20A      0.286943    21A      0.308393  
      22A      0.350207    23A      0.362245    24A      0.412832  
      25A      0.461834    26A      0.716567    27A      0.717604  
      28A      0.741009    29A      0.788411    30A      0.805201  
      31A      0.864283    32A      0.892312    33A      0.947637  
      34A      0.978542    35A      1.064520    36A      1.100623  
      37A      1.118398    38A      1.123881    39A      1.148173  
      40A      1.176463    41A      1.177499    42A      1.225106  
      43A      1.345226    44A      1.518242    45A      1.657156  
      46A      1.680458    47A      1.707472    48A      1.789553  
      49A      1.811304    50A      1.919440    51A      1.992530  
      52A      2.132456    53A      2.204016    54A      2.273368  
      55A      2.287065    56A      2.314271    57A      2.338113  
      58A      2.543802    59A      2.579984    60A      2.643618  
      61A      2.663463    62A      2.850234    63A      3.128372  
      64A      3.140635    65A      3.205504    66A      3.643958  
      67A      4.466159    68A      4.528324    69A      4.704299  
      70A      5.070755  

    Final Occupation by Irrep:
              A 
    DOCC [    15 ]

  Energy converged.

  @DF-RHF Final Energy:  -170.96242516071891

   => Energetics <=

    Nuclear Repulsion Energy =            103.3970460190383989
    One-Electron Energy =                -434.5400140129385136
    Two-Electron Energy =                 160.1805428331811925
    DFT Exchange-Correlation Energy =       0.0000000000000000
    Empirical Dispersion Energy =           0.0000000000000000
    PCM Polarization Energy =               0.0000000000000000
    EFP Energy =                            0.0000000000000000
    Total Energy =                       -170.9624251607189365

    Alert: EFP and PCM quantities not currently incorporated into SCF psivars.

Properties will be evaluated at   0.000000,   0.000000,   0.000000 Bohr
  ==> Properties <==


Properties computed using the SCF density matrix

  Nuclear Dipole Moment: (a.u.)
     X:    -6.1530      Y:     1.9987      Z:    -2.0852

  Electronic Dipole Moment: (a.u.)
     X:     4.6344      Y:    -1.4002      Z:     2.0031

  Dipole Moment: (a.u.)
     X:    -1.5185      Y:     0.5985      Z:    -0.0820     Total:     1.6343

  Dipole Moment: (Debye)
     X:    -3.8597      Y:     1.5212      Z:    -0.2084     Total:     4.1539


  Saving occupied orbitals to File 180.

*** tstop() called on cx1-3-16-4.cx1.hpc.ic.ac.uk at Tue Jul  5 16:41:35 2016
Module time:
	user time   =       2.27 seconds =       0.04 minutes
	system time =       0.03 seconds =       0.00 minutes
	total time  =          2 seconds =       0.03 minutes
Total time:
	user time   =       2.27 seconds =       0.04 minutes
	system time =       0.03 seconds =       0.00 minutes
	total time  =          2 seconds =       0.03 minutes


Properties will be evaluated at   0.000000,   0.000000,   0.000000 Bohr

Properties computed using the  density matrix

  Nuclear Dipole Moment: (a.u.)
     X:    -6.1530      Y:     1.9987      Z:    -2.0852

  Electronic Dipole Moment: (a.u.)
     X:     4.6344      Y:    -1.4002      Z:     2.0031

  Dipole Moment: (a.u.)
     X:    -1.5185      Y:     0.5985      Z:    -0.0820     Total:     1.6343

  Dipole Moment: (Debye)
     X:    -3.8597      Y:     1.5212      Z:    -0.2084     Total:     4.1539

  Quadrupole Moment: (Debye Ang)
    XX:   -29.6441     YY:   -24.6232     ZZ:   -24.0312
    XY:     2.0283     XZ:    -1.3056     YZ:     0.5038

  Traceless Quadrupole Moment: (Debye Ang)
    XX:    -3.5446     YY:     1.4763     ZZ:     2.0683
    XY:     2.0283     XZ:    -1.3056     YZ:     0.5038

  Mulliken Charges: (a.u.)
   Center  Symbol    Alpha    Beta     Spin     Total
       1     H     0.40905  0.40905  0.00000  0.18189
       2     C     3.24303  3.24303  0.00000 -0.48606
       3     C     3.18199  3.18199  0.00000 -0.36397
       4     H     0.40544  0.40544  0.00000  0.18912
       5     H     0.40537  0.40537  0.00000  0.18926
       6     C     2.84842  2.84842  0.00000  0.30315
       7     H     0.38862  0.38862  0.00000  0.22276
       8     H     0.38839  0.38839  0.00000  0.22322
       9     N     3.72968  3.72968  0.00000 -0.45936

   Total alpha = 15.00000, Total beta = 15.00000, Total charge =  0.00000


*** PSI4 exiting successfully. Buy a developer a beer!
