    -----------------------------------------------------------------------
          Psi4: An Open-Source Ab Initio Electronic Structure Package
                              Psi4 (no tag) Driver

                          Git: Rev {detached?}  

    J. M. Turney, A. C. Simmonett, R. M. Parrish, E. G. Hohenstein,
    F. A. Evangelista, J. T. Fermann, B. J. Mintz, L. A. Burns, J. J. Wilke,
    M. L. Abrams, N. J. Russ, M. L. Leininger, C. L. Janssen, E. T. Seidl,
    W. D. Allen, H. F. Schaefer, R. A. King, E. F. Valeev, C. D. Sherrill,
    and T. D. Crawford, WIREs Comput. Mol. Sci. 2, 556-565 (2012)
    (doi: 10.1002/wcms.93)

                         Additional Contributions by
    A. E. DePrince, M. Saitow, U. Bozkaya, A. Yu. Sokolov
    -----------------------------------------------------------------------


    Psi4 started on: Tue Jul  5 17:13:59 2016

    Process ID:  19040
    PSI4DATADIR: /export131/home/mjharvey/miniconda3/share
    Memory level set to 256.000 MB

  ==> Input File <==

--------------------------------------------------------------------------
set {
	reference rhf
	basis 6-31G*
}


set_num_threads( 1 )
memory 2 gb

molecule MOL {
0 1

H	 -2.646374	 -0.642757	 1.268656
C	 -2.083525	 -0.384536	 0.393091
O	 -0.807605	 -0.127164	 0.768327
F	 -2.118945	 -1.383102	 -0.486752
F	 -2.621877	 0.670592	 -0.209486
C	 -0.537304	 -0.046283	 2.122241
C	 -1.109491	 -1.302714	 2.765781
Cl	 -1.269808	 1.404395	 2.826646
H	 0.518312	 -0.011612	 2.327778
F	 -2.424808	 -1.281498	 2.725418
F	 -0.739397	 -1.337949	 4.030386
F	 -0.686615	 -2.395714	 2.178839

	symmetry c1
}
set optking {
	frozen_dihedral = ("
		10 7 6 9,
		9 6 3 2
	")
}

ee = energy('scf')
oeprop('DIPOLE', 'QUADRUPOLE', 'MULLIKEN_CHARGES')
f=open( 'psi4out.xyz', 'w' )
f.write( "12  " )
f.write( str(ee) + "\n" )
f.write( MOL.save_string_xyz() )
f.close()
--------------------------------------------------------------------------

  Memory set to   2.000 GiB by Python script.

*** tstart() called on cx1-3-4-4.cx1.hpc.ic.ac.uk
*** at Tue Jul  5 17:13:59 2016


         ---------------------------------------------------------
                                   SCF
            by Justin Turney, Rob Parrish, and Andy Simmonett
                              RHF Reference
                        1 Threads,   2000 MiB Core
         ---------------------------------------------------------

  ==> Geometry <==

    Molecular point group: c1
    Full point group: C1

    Geometry (in Angstrom), charge = 0, multiplicity = 1:

       Center              X                  Y                   Z               Mass       
    ------------   -----------------  -----------------  -----------------  -----------------
           H         -1.192575820218    -0.190499915654    -0.550367520698     1.007825032070
           C         -0.629726820218     0.067721084346    -1.425932520698    12.000000000000
           O          0.646193179782     0.325093084346    -1.050696520698    15.994914619560
           F         -0.665146820218    -0.930844915654    -2.305775520698    18.998403224000
           F         -1.168078820218     1.122849084346    -2.028509520698    18.998403224000
           C          0.916494179782     0.405974084346     0.303217479302    12.000000000000
           C          0.344307179782    -0.850456915654     0.946757479302    12.000000000000
          CL          0.183990179782     1.856652084346     1.007622479302    34.968852682000
           H          1.972110179782     0.440645084346     0.508754479302     1.007825032070
           F         -0.971009820218    -0.829240915654     0.906394479302    18.998403224000
           F          0.714401179782    -0.885691915654     2.211362479302    18.998403224000
           F          0.767183179782    -1.943456915654     0.359815479302    18.998403224000

  Running in c1 symmetry.

  Rotational constants: A =      0.05026  B =      0.03475  C =      0.02437 [cm^-1]
  Rotational constants: A =   1506.70464  B =   1041.84790  C =    730.73135 [MHz]
  Nuclear repulsion =  754.907340955885616

  Charge       = 0
  Multiplicity = 1
  Electrons    = 90
  Nalpha       = 45
  Nbeta        = 45

  ==> Algorithm <==

  SCF Algorithm Type is DF.
  DIIS enabled.
  MOM disabled.
  Fractional occupation disabled.
  Guess Type is CORE.
  Energy threshold   = 1.00e-06
  Density threshold  = 1.00e-06
  Integral threshold = 0.00e+00

  ==> Primary Basis <==

  Basis Set: 6-31G*
    Number of shells: 66
    Number of basis function: 158
    Number of Cartesian functions: 158
    Spherical Harmonics?: false
    Max angular momentum: 2

  ==> Pre-Iterations <==

   -------------------------------------------------------
    Irrep   Nso     Nmo     Nalpha   Nbeta   Ndocc  Nsocc
   -------------------------------------------------------
     A        158     158       0       0       0       0
   -------------------------------------------------------
    Total     158     158      45      45      45       0
   -------------------------------------------------------

 OEINTS: Overlap, kinetic, potential, dipole, and quadrupole integrals
         stored in file 35.

  ==> Integral Setup <==

  ==> DFJK: Density-Fitted J/K Matrices <==

    J tasked:                  Yes
    K tasked:                  Yes
    wK tasked:                  No
    OpenMP threads:              1
    Integrals threads:           1
    Memory (MB):              1430
    Algorithm:                Core
    Integral Cache:           NONE
    Schwarz Cutoff:          1E-12
    Fitting Condition:       1E-12

   => Auxiliary Basis Set <=

  Basis Set: 
    Number of shells: 270
    Number of basis function: 909
    Number of Cartesian functions: 909
    Spherical Harmonics?: false
    Max angular momentum: 3

  Minimum eigenvalue in the overlap matrix is 1.6766062422E-03.
  Using Symmetric Orthogonalization.
  SCF Guess: Core (One-Electron) Hamiltonian.

  ==> Iterations <==

                           Total Energy        Delta E     RMS |[F,P]|

   @DF-RHF iter   1: -1051.05864105990531   -1.05106e+03   6.78143e-02 
   @DF-RHF iter   2:  -757.86467536564044    2.93194e+02   8.85580e-02 DIIS
   @DF-RHF iter   3:  -995.44936771165578   -2.37585e+02   6.09543e-02 DIIS
   @DF-RHF iter   4: -1068.64026356812883   -7.31909e+01   5.48547e-02 DIIS
   @DF-RHF iter   5: -1143.89856069375082   -7.52583e+01   1.61014e-02 DIIS
   @DF-RHF iter   6: -1145.85484427957817   -1.95628e+00   7.24756e-03 DIIS
   @DF-RHF iter   7: -1146.27000392711943   -4.15160e-01   7.62398e-04 DIIS
   @DF-RHF iter   8: -1146.27824941412655   -8.24549e-03   3.17474e-04 DIIS
   @DF-RHF iter   9: -1146.27946465296100   -1.21524e-03   9.06181e-05 DIIS
   @DF-RHF iter  10: -1146.27960005420937   -1.35401e-04   2.84558e-05 DIIS
   @DF-RHF iter  11: -1146.27961288501638   -1.28308e-05   1.15937e-05 DIIS
   @DF-RHF iter  12: -1146.27961493266275   -2.04765e-06   3.01428e-06 DIIS
   @DF-RHF iter  13: -1146.27961512543789   -1.92775e-07   9.59733e-07 DIIS

  ==> Post-Iterations <==

    Orbital Energies (a.u.)
    -----------------------

    Doubly Occupied:                                                      

       1A   -104.856414     2A    -26.388876     3A    -26.383472  
       4A    -26.374812     5A    -26.326116     6A    -26.321770  
       7A    -20.644099     8A    -11.546960     9A    -11.461580  
      10A    -11.414568    11A    -10.591344    12A     -8.060667  
      13A     -8.057108    14A     -8.057066    15A     -1.788110  
      16A     -1.694010    17A     -1.689211    18A     -1.676439  
      19A     -1.615058    20A     -1.486872    21A     -1.188536  
      22A     -1.062329    23A     -0.990641    24A     -0.949776  
      25A     -0.878833    26A     -0.875817    27A     -0.846419  
      28A     -0.825211    29A     -0.792530    30A     -0.768934  
      31A     -0.751335    32A     -0.741395    33A     -0.709729  
      34A     -0.701503    35A     -0.699604    36A     -0.684078  
      37A     -0.678623    38A     -0.660667    39A     -0.647562  
      40A     -0.631871    41A     -0.610537    42A     -0.535047  
      43A     -0.525158    44A     -0.488259    45A     -0.480643  

    Virtual:                                                              

      46A      0.160943    47A      0.229846    48A      0.261918  
      49A      0.315740    50A      0.355151    51A      0.371605  
      52A      0.399317    53A      0.418461    54A      0.430389  
      55A      0.481016    56A      0.508785    57A      0.552590  
      58A      0.610860    59A      0.618867    60A      0.627548  
      61A      0.662973    62A      0.701901    63A      0.720946  
      64A      0.736063    65A      0.747522    66A      0.764593  
      67A      0.776524    68A      0.822198    69A      0.894595  
      70A      1.008588    71A      1.056541    72A      1.072166  
      73A      1.079424    74A      1.110943    75A      1.135278  
      76A      1.179917    77A      1.194494    78A      1.248157  
      79A      1.271355    80A      1.292666    81A      1.310248  
      82A      1.354624    83A      1.364625    84A      1.391889  
      85A      1.431733    86A      1.476335    87A      1.496714  
      88A      1.504894    89A      1.560941    90A      1.587283  
      91A      1.601391    92A      1.618311    93A      1.629859  
      94A      1.638500    95A      1.642840    96A      1.668190  
      97A      1.674062    98A      1.681223    99A      1.716547  
     100A      1.746288   101A      1.779576   102A      1.818951  
     103A      1.899817   104A      1.918419   105A      1.952570  
     106A      2.014128   107A      2.021474   108A      2.066967  
     109A      2.084383   110A      2.092102   111A      2.108681  
     112A      2.130142   113A      2.149318   114A      2.175421  
     115A      2.219347   116A      2.234215   117A      2.270784  
     118A      2.288885   119A      2.303672   120A      2.317807  
     121A      2.360979   122A      2.368843   123A      2.383213  
     124A      2.426353   125A      2.445102   126A      2.462720  
     127A      2.473141   128A      2.501125   129A      2.550649  
     130A      2.583176   131A      2.665168   132A      2.668021  
     133A      2.721529   134A      2.783747   135A      2.848705  
     136A      2.946465   137A      3.026359   138A      3.087437  
     139A      3.113851   140A      3.122869   141A      3.152129  
     142A      3.227052   143A      3.377808   144A      3.401702  
     145A      3.405474   146A      3.427765   147A      3.448689  
     148A      3.492991   149A      4.372544   150A      4.570494  
     151A      4.676876   152A      4.743528   153A      4.851467  
     154A      5.019957   155A      5.124487   156A      5.325656  
     157A      5.622397   158A      5.924851  

    Final Occupation by Irrep:
              A 
    DOCC [    45 ]

  Energy converged.

  @DF-RHF Final Energy: -1146.27961512543789

   => Energetics <=

    Nuclear Repulsion Energy =            754.9073409558856156
    One-Electron Energy =               -3092.0545677031705054
    Two-Electron Energy =                1190.8676116218475727
    DFT Exchange-Correlation Energy =       0.0000000000000000
    Empirical Dispersion Energy =           0.0000000000000000
    PCM Polarization Energy =               0.0000000000000000
    EFP Energy =                            0.0000000000000000
    Total Energy =                      -1146.2796151254374308

    Alert: EFP and PCM quantities not currently incorporated into SCF psivars.

Properties will be evaluated at   0.000000,   0.000000,   0.000000 Bohr
  ==> Properties <==


Properties computed using the SCF density matrix

  Nuclear Dipole Moment: (a.u.)
     X:     1.8132      Y:     1.8065      Z:    -0.1583

  Electronic Dipole Moment: (a.u.)
     X:    -1.3553      Y:    -1.9323      Z:     0.9135

  Dipole Moment: (a.u.)
     X:     0.4578      Y:    -0.1259      Z:     0.7552     Total:     0.8921

  Dipole Moment: (Debye)
     X:     1.1637      Y:    -0.3199      Z:     1.9196     Total:     2.2675


  Saving occupied orbitals to File 180.

*** tstop() called on cx1-3-4-4.cx1.hpc.ic.ac.uk at Tue Jul  5 17:14:17 2016
Module time:
	user time   =      16.78 seconds =       0.28 minutes
	system time =       0.22 seconds =       0.00 minutes
	total time  =         18 seconds =       0.30 minutes
Total time:
	user time   =      16.78 seconds =       0.28 minutes
	system time =       0.22 seconds =       0.00 minutes
	total time  =         18 seconds =       0.30 minutes


Properties will be evaluated at   0.000000,   0.000000,   0.000000 Bohr

Properties computed using the  density matrix

  Nuclear Dipole Moment: (a.u.)
     X:     1.8132      Y:     1.8065      Z:    -0.1583

  Electronic Dipole Moment: (a.u.)
     X:    -1.3553      Y:    -1.9323      Z:     0.9135

  Dipole Moment: (a.u.)
     X:     0.4578      Y:    -0.1259      Z:     0.7552     Total:     0.8921

  Dipole Moment: (Debye)
     X:     1.1637      Y:    -0.3199      Z:     1.9196     Total:     2.2675

  Quadrupole Moment: (Debye Ang)
    XX:   -56.4013     YY:   -63.0693     ZZ:   -67.0717
    XY:     1.1729     XZ:    -0.0934     YZ:     0.4982

  Traceless Quadrupole Moment: (Debye Ang)
    XX:     5.7794     YY:    -0.8885     ZZ:    -4.8910
    XY:     1.1729     XZ:    -0.0934     YZ:     0.4982

  Mulliken Charges: (a.u.)
   Center  Symbol    Alpha    Beta     Spin     Total
       1     H     0.39005  0.39005  0.00000  0.21989
       2     C     2.58764  2.58764  0.00000  0.82472
       3     O     4.30122  4.30122  0.00000 -0.60243
       4     F     4.68244  4.68244  0.00000 -0.36489
       5     F     4.68326  4.68326  0.00000 -0.36652
       6     C     3.03182  3.03182  0.00000 -0.06364
       7     C     2.45062  2.45062  0.00000  1.09875
       8    CL     8.49872  8.49872  0.00000  0.00257
       9     H     0.35879  0.35879  0.00000  0.28242
      10     F     4.67400  4.67400  0.00000 -0.34800
      11     F     4.67386  4.67386  0.00000 -0.34772
      12     F     4.66758  4.66758  0.00000 -0.33516

   Total alpha = 45.00000, Total beta = 45.00000, Total charge =  0.00000


*** PSI4 exiting successfully. Buy a developer a beer!
