    -----------------------------------------------------------------------
          Psi4: An Open-Source Ab Initio Electronic Structure Package
                              Psi4 (no tag) Driver

                          Git: Rev {detached?}  

    J. M. Turney, A. C. Simmonett, R. M. Parrish, E. G. Hohenstein,
    F. A. Evangelista, J. T. Fermann, B. J. Mintz, L. A. Burns, J. J. Wilke,
    M. L. Abrams, N. J. Russ, M. L. Leininger, C. L. Janssen, E. T. Seidl,
    W. D. Allen, H. F. Schaefer, R. A. King, E. F. Valeev, C. D. Sherrill,
    and T. D. Crawford, WIREs Comput. Mol. Sci. 2, 556-565 (2012)
    (doi: 10.1002/wcms.93)

                         Additional Contributions by
    A. E. DePrince, M. Saitow, U. Bozkaya, A. Yu. Sokolov
    -----------------------------------------------------------------------


    Psi4 started on: Tue Jul  5 17:18:08 2016

    Process ID:  20124
    PSI4DATADIR: /export131/home/mjharvey/miniconda3/share
    Memory level set to 256.000 MB

  ==> Input File <==

--------------------------------------------------------------------------
set {
	reference rhf
	basis 6-31G*
}


set_num_threads( 1 )
memory 2 gb

molecule MOL {
0 1

H	 -2.646374	 -0.642757	 1.268656
C	 -2.083525	 -0.384536	 0.393091
O	 -0.807605	 -0.127164	 0.768327
F	 -2.118945	 -1.383102	 -0.486752
F	 -2.621877	 0.670592	 -0.209486
C	 0.196576	 -0.897374	 0.210578
C	 -0.002821	 -0.862593	 -1.299121
Cl	 0.122937	 -2.561957	 0.811374
H	 1.177377	 -0.513802	 0.431200
F	 -1.095779	 -1.515130	 -1.633453
F	 1.021882	 -1.457820	 -1.876294
F	 -0.084722	 0.361963	 -1.759260

	symmetry c1
}
set optking {
	frozen_dihedral = ("
		10 7 6 9,
		9 6 3 2
	")
}

ee = energy('scf')
oeprop('DIPOLE', 'QUADRUPOLE', 'MULLIKEN_CHARGES')
f=open( 'psi4out.xyz', 'w' )
f.write( "12  " )
f.write( str(ee) + "\n" )
f.write( MOL.save_string_xyz() )
f.close()
--------------------------------------------------------------------------

  Memory set to   2.000 GiB by Python script.

*** tstart() called on cx1-3-4-4.cx1.hpc.ic.ac.uk
*** at Tue Jul  5 17:18:08 2016


         ---------------------------------------------------------
                                   SCF
            by Justin Turney, Rob Parrish, and Andy Simmonett
                              RHF Reference
                        1 Threads,   2000 MiB Core
         ---------------------------------------------------------

  ==> Geometry <==

    Molecular point group: c1
    Full point group: C1

    Geometry (in Angstrom), charge = 0, multiplicity = 1:

       Center              X                  Y                   Z               Mass       
    ------------   -----------------  -----------------  -----------------  -----------------
           H         -1.962257491076     0.344697693494     1.699702561245     1.007825032070
           C         -1.399408491076     0.602918693494     0.824137561245    12.000000000000
           O         -0.123488491076     0.860290693494     1.199373561245    15.994914619560
           F         -1.434828491076    -0.395647306506    -0.055705438755    18.998403224000
           F         -1.937760491076     1.658046693494     0.221560561245    18.998403224000
           C          0.880692508924     0.090080693494     0.641624561245    12.000000000000
           C          0.681295508924     0.124861693494    -0.868074438755    12.000000000000
          CL          0.807053508924    -1.574502306506     1.242420561245    34.968852682000
           H          1.861493508924     0.473652693494     0.862246561245     1.007825032070
           F         -0.411662491076    -0.527675306506    -1.202406438755    18.998403224000
           F          1.705998508924    -0.470365306506    -1.445247438755    18.998403224000
           F          0.599394508924     1.349417693494    -1.328213438755    18.998403224000

  Running in c1 symmetry.

  Rotational constants: A =      0.05174  B =      0.04080  C =      0.02986 [cm^-1]
  Rotational constants: A =   1551.24429  B =   1223.13744  C =    895.03603 [MHz]
  Nuclear repulsion =  790.814829954325660

  Charge       = 0
  Multiplicity = 1
  Electrons    = 90
  Nalpha       = 45
  Nbeta        = 45

  ==> Algorithm <==

  SCF Algorithm Type is DF.
  DIIS enabled.
  MOM disabled.
  Fractional occupation disabled.
  Guess Type is CORE.
  Energy threshold   = 1.00e-06
  Density threshold  = 1.00e-06
  Integral threshold = 0.00e+00

  ==> Primary Basis <==

  Basis Set: 6-31G*
    Number of shells: 66
    Number of basis function: 158
    Number of Cartesian functions: 158
    Spherical Harmonics?: false
    Max angular momentum: 2

  ==> Pre-Iterations <==

   -------------------------------------------------------
    Irrep   Nso     Nmo     Nalpha   Nbeta   Ndocc  Nsocc
   -------------------------------------------------------
     A        158     158       0       0       0       0
   -------------------------------------------------------
    Total     158     158      45      45      45       0
   -------------------------------------------------------

 OEINTS: Overlap, kinetic, potential, dipole, and quadrupole integrals
         stored in file 35.

  ==> Integral Setup <==

  ==> DFJK: Density-Fitted J/K Matrices <==

    J tasked:                  Yes
    K tasked:                  Yes
    wK tasked:                  No
    OpenMP threads:              1
    Integrals threads:           1
    Memory (MB):              1430
    Algorithm:                Core
    Integral Cache:           NONE
    Schwarz Cutoff:          1E-12
    Fitting Condition:       1E-12

   => Auxiliary Basis Set <=

  Basis Set: 
    Number of shells: 270
    Number of basis function: 909
    Number of Cartesian functions: 909
    Spherical Harmonics?: false
    Max angular momentum: 3

  Minimum eigenvalue in the overlap matrix is 1.2392524346E-03.
  Using Symmetric Orthogonalization.
  SCF Guess: Core (One-Electron) Hamiltonian.

  ==> Iterations <==

                           Total Energy        Delta E     RMS |[F,P]|

   @DF-RHF iter   1: -1054.08312268089298   -1.05408e+03   7.02522e-02 
   @DF-RHF iter   2:  -945.49924189592139    1.08584e+02   7.73517e-02 DIIS
   @DF-RHF iter   3: -1102.65736270141588   -1.57158e+02   3.11295e-02 DIIS
   @DF-RHF iter   4:  -961.90146447004895    1.40756e+02   9.76089e-02 DIIS
   @DF-RHF iter   5: -1095.40687606437768   -1.33505e+02   4.91404e-02 DIIS
   @DF-RHF iter   6: -1139.78973705733324   -4.43829e+01   2.23846e-02 DIIS
   @DF-RHF iter   7: -1142.58304588334545   -2.79331e+00   1.38413e-02 DIIS
   @DF-RHF iter   8: -1145.77224723249606   -3.18920e+00   5.83068e-03 DIIS
   @DF-RHF iter   9: -1146.07048685205586   -2.98240e-01   1.97884e-03 DIIS
   @DF-RHF iter  10: -1146.10574857807637   -3.52617e-02   1.05151e-03 DIIS
   @DF-RHF iter  11: -1146.11656956363208   -1.08210e-02   2.88448e-04 DIIS
   @DF-RHF iter  12: -1146.11770438473445   -1.13482e-03   1.10133e-04 DIIS
   @DF-RHF iter  13: -1146.11786324840568   -1.58864e-04   4.81925e-05 DIIS
   @DF-RHF iter  14: -1146.11789171560235   -2.84672e-05   1.05729e-05 DIIS
   @DF-RHF iter  15: -1146.11789367899337   -1.96339e-06   4.79220e-06 DIIS
   @DF-RHF iter  16: -1146.11789398895667   -3.09963e-07   1.04206e-06 DIIS
   @DF-RHF iter  17: -1146.11789401415263   -2.51960e-08   3.14353e-07 DIIS

  ==> Post-Iterations <==

    Orbital Energies (a.u.)
    -----------------------

    Doubly Occupied:                                                      

       1A   -104.847403     2A    -26.362776     3A    -26.351919  
       4A    -26.333150     5A    -26.312847     6A    -26.309377  
       7A    -20.644346     8A    -11.520473     9A    -11.476151  
      10A    -11.405021    11A    -10.582389    12A     -8.051732  
      13A     -8.048241    14A     -8.048083    15A     -1.778068  
      16A     -1.720931    17A     -1.665302    18A     -1.655218  
      19A     -1.599988    20A     -1.485753    21A     -1.180469  
      22A     -1.048057    23A     -1.017386    24A     -0.898136  
      25A     -0.892963    26A     -0.865641    27A     -0.852546  
      28A     -0.814439    29A     -0.789988    30A     -0.765343  
      31A     -0.747325    32A     -0.732061    33A     -0.698565  
      34A     -0.693615    35A     -0.678456    36A     -0.669040  
      37A     -0.664957    38A     -0.646901    39A     -0.621110  
      40A     -0.618295    41A     -0.567944    42A     -0.517741  
      43A     -0.492785    44A     -0.481487    45A     -0.469985  

    Virtual:                                                              

      46A      0.168912    47A      0.237938    48A      0.260660  
      49A      0.274890    50A      0.353519    51A      0.381763  
      52A      0.401246    53A      0.422126    54A      0.451324  
      55A      0.465300    56A      0.512668    57A      0.544223  
      58A      0.620572    59A      0.626194    60A      0.632242  
      61A      0.679189    62A      0.701272    63A      0.720356  
      64A      0.752271    65A      0.760634    66A      0.770103  
      67A      0.777753    68A      0.858350    69A      0.917070  
      70A      0.994712    71A      1.061107    72A      1.070535  
      73A      1.111451    74A      1.123331    75A      1.144108  
      76A      1.159338    77A      1.188836    78A      1.252429  
      79A      1.269219    80A      1.289406    81A      1.329980  
      82A      1.337857    83A      1.381353    84A      1.391354  
      85A      1.442272    86A      1.478989    87A      1.498359  
      88A      1.529742    89A      1.549636    90A      1.594017  
      91A      1.606570    92A      1.628538    93A      1.635770  
      94A      1.653798    95A      1.663366    96A      1.676949  
      97A      1.685878    98A      1.707937    99A      1.742099  
     100A      1.817940   101A      1.842007   102A      1.901721  
     103A      1.942930   104A      1.967551   105A      1.987449  
     106A      2.031162   107A      2.040054   108A      2.055451  
     109A      2.083567   110A      2.094794   111A      2.113316  
     112A      2.123405   113A      2.180565   114A      2.242006  
     115A      2.249722   116A      2.280640   117A      2.292594  
     118A      2.318468   119A      2.347637   120A      2.363893  
     121A      2.377166   122A      2.418899   123A      2.426777  
     124A      2.471230   125A      2.488445   126A      2.510393  
     127A      2.571603   128A      2.596552   129A      2.611643  
     130A      2.667384   131A      2.697646   132A      2.802246  
     133A      2.832054   134A      2.905478   135A      2.949312  
     136A      2.992416   137A      3.061517   138A      3.134897  
     139A      3.175934   140A      3.223092   141A      3.289719  
     142A      3.322030   143A      3.417254   144A      3.433401  
     145A      3.454324   146A      3.494808   147A      3.565060  
     148A      3.942836   149A      4.363441   150A      4.578034  
     151A      4.671593   152A      4.698336   153A      4.790021  
     154A      4.913205   155A      5.195267   156A      5.693142  
     157A      5.927626   158A      6.805931  

    Final Occupation by Irrep:
              A 
    DOCC [    45 ]

  Energy converged.

  @DF-RHF Final Energy: -1146.11789401415263

   => Energetics <=

    Nuclear Repulsion Energy =            790.8148299543256599
    One-Electron Energy =               -3164.6167569210711008
    Two-Electron Energy =                1227.6840329525934976
    DFT Exchange-Correlation Energy =       0.0000000000000000
    Empirical Dispersion Energy =           0.0000000000000000
    PCM Polarization Energy =               0.0000000000000000
    EFP Energy =                            0.0000000000000000
    Total Energy =                      -1146.1178940141521707

    Alert: EFP and PCM quantities not currently incorporated into SCF psivars.

Properties will be evaluated at   0.000000,   0.000000,   0.000000 Bohr
  ==> Properties <==


Properties computed using the SCF density matrix

  Nuclear Dipole Moment: (a.u.)
     X:     0.5612      Y:     0.6903      Z:     4.8644

  Electronic Dipole Moment: (a.u.)
     X:    -0.3308      Y:    -0.6052      Z:    -4.1645

  Dipole Moment: (a.u.)
     X:     0.2305      Y:     0.0851      Z:     0.6998     Total:     0.7417

  Dipole Moment: (Debye)
     X:     0.5857      Y:     0.2164      Z:     1.7787     Total:     1.8852


  Saving occupied orbitals to File 180.

*** tstop() called on cx1-3-4-4.cx1.hpc.ic.ac.uk at Tue Jul  5 17:18:32 2016
Module time:
	user time   =      22.81 seconds =       0.38 minutes
	system time =       0.27 seconds =       0.00 minutes
	total time  =         24 seconds =       0.40 minutes
Total time:
	user time   =      22.81 seconds =       0.38 minutes
	system time =       0.27 seconds =       0.00 minutes
	total time  =         24 seconds =       0.40 minutes


Properties will be evaluated at   0.000000,   0.000000,   0.000000 Bohr

Properties computed using the  density matrix

  Nuclear Dipole Moment: (a.u.)
     X:     0.5612      Y:     0.6903      Z:     4.8644

  Electronic Dipole Moment: (a.u.)
     X:    -0.3308      Y:    -0.6052      Z:    -4.1645

  Dipole Moment: (a.u.)
     X:     0.2305      Y:     0.0851      Z:     0.6998     Total:     0.7417

  Dipole Moment: (Debye)
     X:     0.5857      Y:     0.2164      Z:     1.7787     Total:     1.8852

  Quadrupole Moment: (Debye Ang)
    XX:   -56.8181     YY:   -63.5235     ZZ:   -60.2076
    XY:     2.5979     XZ:    -1.2449     YZ:     0.2599

  Traceless Quadrupole Moment: (Debye Ang)
    XX:     3.3649     YY:    -3.3404     ZZ:    -0.0245
    XY:     2.5979     XZ:    -1.2449     YZ:     0.2599

  Mulliken Charges: (a.u.)
   Center  Symbol    Alpha    Beta     Spin     Total
       1     H     0.40778  0.40778  0.00000  0.18444
       2     C     2.56178  2.56178  0.00000  0.87645
       3     O     4.31250  4.31250  0.00000 -0.62500
       4     F     4.67321  4.67321  0.00000 -0.34642
       5     F     4.68440  4.68440  0.00000 -0.36881
       6     C     3.02676  3.02676  0.00000 -0.05352
       7     C     2.45746  2.45746  0.00000  1.08509
       8    CL     8.50384  8.50384  0.00000 -0.00769
       9     H     0.36083  0.36083  0.00000  0.27835
      10     F     4.66085  4.66085  0.00000 -0.32170
      11     F     4.67833  4.67833  0.00000 -0.35666
      12     F     4.67226  4.67226  0.00000 -0.34453

   Total alpha = 45.00000, Total beta = 45.00000, Total charge = -0.00000


*** PSI4 exiting successfully. Buy a developer a beer!
