
    -----------------------------------------------------------------------
          Psi4: An Open-Source Ab Initio Electronic Structure Package
                               Psi4 1.1 release

                         Git: Rev {HEAD} add49b9 


    R. M. Parrish, L. A. Burns, D. G. A. Smith, A. C. Simmonett,
    A. E. DePrince III, E. G. Hohenstein, U. Bozkaya, A. Yu. Sokolov,
    R. Di Remigio, R. M. Richard, J. F. Gonthier, A. M. James,
    H. R. McAlexander, A. Kumar, M. Saitow, X. Wang, B. P. Pritchard,
    P. Verma, H. F. Schaefer III, K. Patkowski, R. A. King, E. F. Valeev,
    F. A. Evangelista, J. M. Turney, T. D. Crawford, and C. D. Sherrill,
    J. Chem. Theory Comput. in press (2017).
    (doi: 10.1021/acs.jctc.7b00174)

    -----------------------------------------------------------------------


    Psi4 started on: Friday, 11 August 2017 02:18PM

    Process ID:   8527
    PSIDATADIR: /home/raimis/opt/miniconda3/envs/htmd/share/psi4
    Memory:     500.0 MiB
    Threads:    1
    
  ==> Input File <==

--------------------------------------------------------------------------
set {
	reference rks
	basis cc-pvdz
}


set_num_threads( 8 )
memory 2 gb

molecule MOL {
0 1

O	 1.014300	 -0.002300	 0.060500
O	 2.462400	 -0.107500	 -0.002400
H	 0.826135	 -0.603316	 -0.685405
H	 2.655500	 0.713700	 0.488700

	symmetry c1
}
set optking { dynamic_level = 1 }
set optking {
	frozen_dihedral = ("
		3 1 2 4
	")
}

ee,wfn = optimize('b3lyp-d3', return_wfn=True)
oeprop( wfn, 'DIPOLE', 'QUADRUPOLE', 'MULLIKEN_CHARGES')
f=open( 'psi4out.xyz', 'w' )
f.write( "4  " )
f.write( str(ee) + "\n" )
f.write( MOL.save_string_xyz() )
f.close()
--------------------------------------------------------------------------
  Threads set to 8 by Python driver.

  Memory set to   1.863 GiB by Python driver.
gradient() will perform analytic gradient computation.

*** tstart() called on computer03
*** at Fri Aug 11 14:18:17 2017

   => Loading Basis Set <=

    Name: CC-PVDZ
    Role: ORBITAL
    Keyword: BASIS
    atoms 1-2 entry O          line   190 file /home/raimis/opt/miniconda3/envs/htmd/share/psi4/basis/cc-pvdz.gbs 
    atoms 3-4 entry H          line    20 file /home/raimis/opt/miniconda3/envs/htmd/share/psi4/basis/cc-pvdz.gbs 


         ---------------------------------------------------------
                                   SCF
            by Justin Turney, Rob Parrish, and Andy Simmonett
                              RKS Reference
                        8 Threads,   1907 MiB Core
         ---------------------------------------------------------

  ==> Geometry <==

    Molecular point group: c1
    Full point group: C1

    Geometry (in Angstrom), charge = 0, multiplicity = 1:

       Center              X                  Y                   Z               Mass       
    ------------   -----------------  -----------------  -----------------  -----------------
           O         -0.724196259269     0.046074376736     0.039001690567    15.994914619560
           O          0.723903740731    -0.059125623264    -0.023898309433    15.994914619560
           H         -0.912361259269    -0.554941623264    -0.706903309433     1.007825032070
           H          0.917003740731     0.762074376736     0.467201690567     1.007825032070

  Running in c1 symmetry.

  Rotational constants: A =      9.71309  B =      0.91035  C =      0.83678 [cm^-1]
  Rotational constants: A = 291191.03271  B =  27291.46801  C =  25086.00469 [MHz]
  Nuclear repulsion =   36.784599676790180

  Charge       = 0
  Multiplicity = 1
  Electrons    = 18
  Nalpha       = 9
  Nbeta        = 9

  ==> Algorithm <==

  SCF Algorithm Type is DF.
  DIIS enabled.
  MOM disabled.
  Fractional occupation disabled.
  Guess Type is SAD.
  Energy threshold   = 1.00e-08
  Density threshold  = 1.00e-08
  Integral threshold = 0.00e+00

  ==> Primary Basis <==

  Basis Set: CC-PVDZ
    Blend: CC-PVDZ
    Number of shells: 18
    Number of basis function: 38
    Number of Cartesian functions: 40
    Spherical Harmonics?: true
    Max angular momentum: 2

  ==> DFT Potential <==

   => B3LYP Composite Functional <= 

    B3LYP Hybrid-GGA Exchange-Correlation Functional (VWN1-RPA)

    P.J. Stephens et. al., J. Phys. Chem., 98, 11623-11627, 1994

    Points   =           5000
    Deriv    =              1
    GGA      =           TRUE
    Meta     =          FALSE

    X_LRC        =          FALSE
    X_Hybrid     =           TRUE
    X_Alpha      =   2.000000E-01
    X_Omega      =   0.000000E+00
    C_LRC        =          FALSE
    C_Hybrid     =          FALSE
    C_Alpha      =   0.000000E+00
    C_Omega      =   0.000000E+00

   => Exchange Functionals <=

    0.8000    B3_X
    0.2000      HF 

   => Correlation Functionals <=

    0.1900 VWN3RPA_C
    0.8100   LYP_C

   => Molecular Quadrature <=

    Radial Scheme    =       TREUTLER
    Pruning Scheme   =           FLAT
    Nuclear Scheme   =       TREUTLER

    BS radius alpha  =              1
    Pruning alpha    =              1
    Radial Points    =             75
    Spherical Points =            302
    Total Points     =          88340
    Total Blocks     =             89
    Max Points       =           4929
    Max Functions    =             38

   => -D3ZERO: Empirical Dispersion <=

    Grimme's -D3 (zero-damping) Dispersion Correction
    Grimme S.; Antony J.; Ehrlich S.; Krieg H. (2010), J. Chem. Phys., 132: 154104

        S6 =   1.000000E+00
        S8 =   1.703000E+00
       SR6 =   1.261000E+00
    ALPHA6 =   1.400000E+01

   => Loading Basis Set <=

    Name: (CC-PVDZ AUX)
    Role: JKFIT
    Keyword: DF_BASIS_SCF
    atoms 1-2 entry O          line   220 file /home/raimis/opt/miniconda3/envs/htmd/share/psi4/basis/cc-pvdz-jkfit.gbs 
    atoms 3-4 entry H          line    50 file /home/raimis/opt/miniconda3/envs/htmd/share/psi4/basis/cc-pvdz-jkfit.gbs 

  ==> Pre-Iterations <==

   -------------------------------------------------------
    Irrep   Nso     Nmo     Nalpha   Nbeta   Ndocc  Nsocc
   -------------------------------------------------------
     A         38      38       0       0       0       0
   -------------------------------------------------------
    Total      38      38       9       9       9       0
   -------------------------------------------------------

  ==> Integral Setup <==

  ==> DFJK: Density-Fitted J/K Matrices <==

    J tasked:                  Yes
    K tasked:                  Yes
    wK tasked:                  No
    OpenMP threads:              8
    Integrals threads:           8
    Memory (MB):              1430
    Algorithm:                Core
    Integral Cache:           NONE
    Schwarz Cutoff:          1E-12
    Fitting Condition:       1E-12

   => Auxiliary Basis Set <=

  Basis Set: (CC-PVDZ AUX)
    Blend: CC-PVDZ-JKFIT
    Number of shells: 66
    Number of basis function: 186
    Number of Cartesian functions: 212
    Spherical Harmonics?: true
    Max angular momentum: 3

  Minimum eigenvalue in the overlap matrix is 2.4053050669E-02.
  Using Symmetric Orthogonalization.

  SCF Guess: Superposition of Atomic Densities via on-the-fly atomic UHF.

  ==> Iterations <==

                           Total Energy        Delta E     RMS |[F,P]|

   @DF-RKS iter   0:  -151.57953719559382   -1.51580e+02   5.94102e-02 
   @DF-RKS iter   1:  -151.51432182879108    6.52154e-02   1.06587e-02 
   @DF-RKS iter   2:  -151.51320387780450    1.11795e-03   9.85655e-03 DIIS
   @DF-RKS iter   3:  -151.54959350064701   -3.63896e-02   1.03771e-03 DIIS
   @DF-RKS iter   4:  -151.54982702997933   -2.33529e-04   3.43389e-04 DIIS
   @DF-RKS iter   5:  -151.54984962874312   -2.25988e-05   2.45273e-04 DIIS
   @DF-RKS iter   6:  -151.54986288610513   -1.32574e-05   8.19732e-06 DIIS
   @DF-RKS iter   7:  -151.54986291834447   -3.22393e-08   1.31012e-06 DIIS
   @DF-RKS iter   8:  -151.54986291928711   -9.42634e-10   1.40661e-07 DIIS
   @DF-RKS iter   9:  -151.54986291930143   -1.43245e-11   4.12270e-08 DIIS
   @DF-RKS iter  10:  -151.54986291930220   -7.67386e-13   4.64427e-09 DIIS

  ==> Post-Iterations <==

    Orbital Energies (a.u.)
    -----------------------

    Doubly Occupied:                                                      

       1A    -19.185621     2A    -19.185581     3A     -1.109612  
       4A     -0.886420     5A     -0.502517     6A     -0.495871  
       7A     -0.394804     8A     -0.350433     9A     -0.244621  

    Virtual:                                                              

      10A      0.026553    11A      0.051598    12A      0.105343  
      13A      0.573294    14A      0.578029    15A      0.844569  
      16A      0.851894    17A      0.870585    18A      0.971367  
      19A      1.001825    20A      1.069915    21A      1.249202  
      22A      1.314213    23A      1.335147    24A      1.471624  
      25A      1.654403    26A      1.787144    27A      2.045719  
      28A      2.103420    29A      2.311010    30A      2.387649  
      31A      2.647397    32A      2.867590    33A      2.925940  
      34A      2.997540    35A      3.164775    36A      3.513440  
      37A      3.513953    38A      3.839375  

    Final Occupation by Irrep:
              A 
    DOCC [     9 ]

  Energy converged.

  @DF-RKS Final Energy:  -151.54986291930220

   => Energetics <=

    Nuclear Repulsion Energy =             36.7845996767901795
    One-Electron Energy =                -281.5728589626068015
    Two-Electron Energy =                 107.7019447245441341
    DFT Exchange-Correlation Energy =     -14.4632269280296999
    Empirical Dispersion Energy =          -0.0003214300000000
    PCM Polarization Energy =               0.0000000000000000
    EFP Energy =                            0.0000000000000000
    Total Energy =                       -151.5498629193022282



Properties will be evaluated at   0.000000,   0.000000,   0.000000 Bohr

Properties computed using the SCF density matrix

  Nuclear Dipole Moment: (a.u.)
     X:     0.0044      Y:     0.1941      Z:    -0.2246

  Electronic Dipole Moment: (a.u.)
     X:    -0.0010      Y:    -0.0429      Z:     0.0497

  Dipole Moment: (a.u.)
     X:     0.0034      Y:     0.1512      Z:    -0.1750     Total:     0.2313

  Dipole Moment: (Debye)
     X:     0.0086      Y:     0.3844      Z:    -0.4447     Total:     0.5878


*** tstop() called on computer03 at Fri Aug 11 14:18:23 2017
Module time:
	user time   =      17.45 seconds =       0.29 minutes
	system time =       0.73 seconds =       0.01 minutes
	total time  =          6 seconds =       0.10 minutes
Total time:
	user time   =      17.45 seconds =       0.29 minutes
	system time =       0.73 seconds =       0.01 minutes
	total time  =          6 seconds =       0.10 minutes

*** tstart() called on computer03
*** at Fri Aug 11 14:18:23 2017


         ------------------------------------------------------------
                                   SCF GRAD                          
                          Rob Parrish, Justin Turney,                
                       Andy Simmonett, and Alex Sokolov              
         ------------------------------------------------------------

  ==> Geometry <==

    Molecular point group: c1
    Full point group: C1

    Geometry (in Angstrom), charge = 0, multiplicity = 1:

       Center              X                  Y                   Z               Mass       
    ------------   -----------------  -----------------  -----------------  -----------------
           O         -0.724196259269     0.046074376736     0.039001690567    15.994914619560
           O          0.723903740731    -0.059125623264    -0.023898309433    15.994914619560
           H         -0.912361259269    -0.554941623264    -0.706903309433     1.007825032070
           H          0.917003740731     0.762074376736     0.467201690567     1.007825032070

  Nuclear repulsion =   36.784599676790180

  ==> Basis Set <==

  Basis Set: CC-PVDZ
    Blend: CC-PVDZ
    Number of shells: 18
    Number of basis function: 38
    Number of Cartesian functions: 40
    Spherical Harmonics?: true
    Max angular momentum: 2

  ==> DFJKGrad: Density-Fitted SCF Gradients <==

    Gradient:                    1
    J tasked:                  Yes
    K tasked:                  Yes
    wK tasked:                  No
    OpenMP threads:              8
    Integrals threads:           8
    Memory (MB):              1430
    Schwarz Cutoff:          0E+00
    Fitting Condition:       1E-12

   => Auxiliary Basis Set <=

  Basis Set: (CC-PVDZ AUX)
    Blend: CC-PVDZ-JKFIT
    Number of shells: 66
    Number of basis function: 186
    Number of Cartesian functions: 212
    Spherical Harmonics?: true
    Max angular momentum: 3

  ==> DFT Potential <==

   => B3LYP Composite Functional <= 

    B3LYP Hybrid-GGA Exchange-Correlation Functional (VWN1-RPA)

    P.J. Stephens et. al., J. Phys. Chem., 98, 11623-11627, 1994

    Points   =           5000
    Deriv    =              1
    GGA      =           TRUE
    Meta     =          FALSE

    X_LRC        =          FALSE
    X_Hybrid     =           TRUE
    X_Alpha      =   2.000000E-01
    X_Omega      =   0.000000E+00
    C_LRC        =          FALSE
    C_Hybrid     =          FALSE
    C_Alpha      =   0.000000E+00
    C_Omega      =   0.000000E+00

   => Exchange Functionals <=

    0.8000    B3_X
    0.2000      HF 

   => Correlation Functionals <=

    0.1900 VWN3RPA_C
    0.8100   LYP_C

   => Molecular Quadrature <=

    Radial Scheme    =       TREUTLER
    Pruning Scheme   =           FLAT
    Nuclear Scheme   =       TREUTLER

    BS radius alpha  =              1
    Pruning alpha    =              1
    Radial Points    =             75
    Spherical Points =            302
    Total Points     =          88340
    Total Blocks     =             89
    Max Points       =           4929
    Max Functions    =             38


  -Total Gradient:
     Atom            X                  Y                   Z
    ------   -----------------  -----------------  -----------------
       1        0.006146227861     0.008162406356     0.007570005583
       2       -0.006141175980    -0.008486320081    -0.007080358297
       3        0.004318042726    -0.003672894770    -0.003489214007
       4       -0.004323014205     0.004000476431     0.002995324326


*** tstop() called on computer03 at Fri Aug 11 14:18:25 2017
Module time:
	user time   =       4.70 seconds =       0.08 minutes
	system time =       0.22 seconds =       0.00 minutes
	total time  =          2 seconds =       0.03 minutes
Total time:
	user time   =      22.29 seconds =       0.37 minutes
	system time =       0.96 seconds =       0.02 minutes
	total time  =          8 seconds =       0.13 minutes

			-----------------------------------------
			 OPTKING 2.0: for geometry optimizations 
			  - R.A. King,  Bethel University        
			-----------------------------------------
	At level 1: Red. Int., RFO, no backsteps, dynamic trust

	Internal coordinates to be generated automatically.
	Detected frag 1 with atoms:  1 2 3 4
	---Fragment 1 Bond Connectivity---
	 1 : 2 3
	 2 : 1 4
	 3 : 1
	 4 : 2

	Assuming in current code that numbering for constraints corresponds to unified fragment.
	Frozen dihedral atom list: 
	     3     1     2     4
	---Fragment 1 Geometry and Gradient---
	 O          -1.3685325965        0.0870679538        0.0737025139
	 O           1.3679798166       -0.1117312354       -0.0451612599
	 H          -1.7241129143       -1.0486876877       -1.3358536573
	 H           1.7328859328        1.4401118649        0.8828832440
	             0.0061462279        0.0081624064        0.0075700056
	            -0.0061411760       -0.0084863201       -0.0070803583
	             0.0043180427       -0.0036728948       -0.0034892140
	            -0.0043230142        0.0040004764        0.0029953243

	Previous optimization step data not found.  Starting new optimization.

	---Fragment 1 Intrafragment Coordinates---
	 - Coordinate -           - BOHR/RAD -       - ANG/DEG -
	 R(1,2)           =         2.746297	       1.453278
	 R(1,3)           =         1.844784	       0.976217
	 R(2,4)           =         1.844625	       0.976133
	 B(1,2,4)         =         1.685490	      96.571484
	 B(2,1,3)         =         1.685473	      96.570498
	*D(3,1,2,4)       =         2.792527	     159.999999

	Current energy   :      -151.5498629193

	Generating empirical Hessian (Schlegel '84) for each fragment.
	Taking RFO optimization step.
	Going to follow RFO solution 1.
	Using RFO vector 1.
	Norm of target step-size    0.08895
	Projected energy change by RFO approximation:        -0.0013499766

	Back-transformation to cartesian coordinates...
	Successfully converged to displaced geometry.

	Back-transformation to cartesian coordinates to adjust frozen coordinates...
	Successfully converged to displaced geometry.

	--- Internal Coordinate Step in ANG or DEG, aJ/ANG or AJ/DEG ---
	 ---------------------------------------------------------------------------
	   Coordinate                Previous        Force       Change         New 
	   ----------                --------       ------       ------       ------
	    1 R(1,2)          =      1.453278     0.081750     0.013830     1.467108
	    2 R(1,3)          =      0.976217    -0.033718    -0.004143     0.972074
	    3 R(2,4)          =      0.976133    -0.033078    -0.004063     0.972070
	    4 B(1,2,4)        =     96.571484     0.000732     3.414641    99.986125
	    5 B(2,1,3)        =     96.570498     0.000733     3.415940    99.986439
	    6 *D(3,1,2,4)     =    159.999999     0.000000     0.000000   159.999999
	 ---------------------------------------------------------------------------
	Successfully symmetrized geometry.

  ==> Convergence Check <==

  Measures of convergence in internal coordinates in au.
  Criteria marked as inactive (o), active & met (*), and active & unmet ( ).
  --------------------------------------------------------------------------------------------- ~
   Step     Total Energy     Delta E     MAX Force     RMS Force      MAX Disp      RMS Disp    ~
  --------------------------------------------------------------------------------------------- ~
    Convergence Criteria    1.00e-06 *    3.00e-04 *             o    1.20e-03 *             o  ~
  --------------------------------------------------------------------------------------------- ~
      1    -151.54986292   -1.52e+02      9.92e-03      7.26e-03 o    5.96e-02      3.63e-02 o  ~
  ---------------------------------------------------------------------------------------------

	Writing optimization data to binary file.
	Structure for next step:
	Cartesian Geometry (in Angstrom)
	    O    -0.7326631893   0.0292979315   0.0229015148
	    O     0.7324042726  -0.0409695803  -0.0094555887
	    H    -0.9463175840  -0.5657489106  -0.7154748468
	    H     0.9509264637   0.7715020664   0.4774306829
			--------------------------
			 OPTKING Finished Execution 
			--------------------------

    Structure for next step:
    Molecular point group: c1
    Full point group: C1

    Geometry (in Angstrom), charge = 0, multiplicity = 1:

    O           -0.732677998522     0.028689907319     0.023631997874
    O            0.732389463430    -0.041577604546    -0.008725105619
    H           -0.946332393183    -0.566356934819    -0.714744363749
    H            0.950911654479     0.770894042183     0.478161166007

gradient() will perform analytic gradient computation.

*** tstart() called on computer03
*** at Fri Aug 11 14:18:25 2017

   => Loading Basis Set <=

    Name: CC-PVDZ
    Role: ORBITAL
    Keyword: BASIS
    atoms 1-2 entry O          line   190 file /home/raimis/opt/miniconda3/envs/htmd/share/psi4/basis/cc-pvdz.gbs 
    atoms 3-4 entry H          line    20 file /home/raimis/opt/miniconda3/envs/htmd/share/psi4/basis/cc-pvdz.gbs 


         ---------------------------------------------------------
                                   SCF
            by Justin Turney, Rob Parrish, and Andy Simmonett
                              RKS Reference
                        8 Threads,   1907 MiB Core
         ---------------------------------------------------------

  ==> Geometry <==

    Molecular point group: c1
    Full point group: C1

    Geometry (in Angstrom), charge = 0, multiplicity = 1:

       Center              X                  Y                   Z               Mass       
    ------------   -----------------  -----------------  -----------------  -----------------
           O         -0.732677998522     0.028689907319     0.023631997874    15.994914619560
           O          0.732389463430    -0.041577604546    -0.008725105619    15.994914619560
           H         -0.946332393183    -0.566356934819    -0.714744363749     1.007825032070
           H          0.950911654479     0.770894042183     0.478161166007     1.007825032070

  Running in c1 symmetry.

  Rotational constants: A =     10.07319  B =      0.88366  C =      0.81651 [cm^-1]
  Rotational constants: A = 301986.70487  B =  26491.36386  C =  24478.50123 [MHz]
  Nuclear repulsion =   36.464684731586395

  Charge       = 0
  Multiplicity = 1
  Electrons    = 18
  Nalpha       = 9
  Nbeta        = 9

  ==> Algorithm <==

  SCF Algorithm Type is DF.
  DIIS enabled.
  MOM disabled.
  Fractional occupation disabled.
  Guess Type is READ.
  Energy threshold   = 1.00e-08
  Density threshold  = 1.00e-08
  Integral threshold = 0.00e+00

  ==> Primary Basis <==

  Basis Set: CC-PVDZ
    Blend: CC-PVDZ
    Number of shells: 18
    Number of basis function: 38
    Number of Cartesian functions: 40
    Spherical Harmonics?: true
    Max angular momentum: 2

  ==> DFT Potential <==

   => B3LYP Composite Functional <= 

    B3LYP Hybrid-GGA Exchange-Correlation Functional (VWN1-RPA)

    P.J. Stephens et. al., J. Phys. Chem., 98, 11623-11627, 1994

    Points   =           5000
    Deriv    =              1
    GGA      =           TRUE
    Meta     =          FALSE

    X_LRC        =          FALSE
    X_Hybrid     =           TRUE
    X_Alpha      =   2.000000E-01
    X_Omega      =   0.000000E+00
    C_LRC        =          FALSE
    C_Hybrid     =          FALSE
    C_Alpha      =   0.000000E+00
    C_Omega      =   0.000000E+00

   => Exchange Functionals <=

    0.8000    B3_X
    0.2000      HF 

   => Correlation Functionals <=

    0.1900 VWN3RPA_C
    0.8100   LYP_C

   => Molecular Quadrature <=

    Radial Scheme    =       TREUTLER
    Pruning Scheme   =           FLAT
    Nuclear Scheme   =       TREUTLER

    BS radius alpha  =              1
    Pruning alpha    =              1
    Radial Points    =             75
    Spherical Points =            302
    Total Points     =          88346
    Total Blocks     =             87
    Max Points       =           4956
    Max Functions    =             38

   => -D3ZERO: Empirical Dispersion <=

    Grimme's -D3 (zero-damping) Dispersion Correction
    Grimme S.; Antony J.; Ehrlich S.; Krieg H. (2010), J. Chem. Phys., 132: 154104

        S6 =   1.000000E+00
        S8 =   1.703000E+00
       SR6 =   1.261000E+00
    ALPHA6 =   1.400000E+01

   => Loading Basis Set <=

    Name: (CC-PVDZ AUX)
    Role: JKFIT
    Keyword: DF_BASIS_SCF
    atoms 1-2 entry O          line   220 file /home/raimis/opt/miniconda3/envs/htmd/share/psi4/basis/cc-pvdz-jkfit.gbs 
    atoms 3-4 entry H          line    50 file /home/raimis/opt/miniconda3/envs/htmd/share/psi4/basis/cc-pvdz-jkfit.gbs 

  Reading orbitals from file 180, no projection.

  ==> Pre-Iterations <==

   -------------------------------------------------------
    Irrep   Nso     Nmo     Nalpha   Nbeta   Ndocc  Nsocc
   -------------------------------------------------------
     A         38      38       0       0       0       0
   -------------------------------------------------------
    Total      38      38       9       9       9       0
   -------------------------------------------------------

  ==> Integral Setup <==

  ==> DFJK: Density-Fitted J/K Matrices <==

    J tasked:                  Yes
    K tasked:                  Yes
    wK tasked:                  No
    OpenMP threads:              8
    Integrals threads:           8
    Memory (MB):              1430
    Algorithm:                Core
    Integral Cache:           NONE
    Schwarz Cutoff:          1E-12
    Fitting Condition:       1E-12

   => Auxiliary Basis Set <=

  Basis Set: (CC-PVDZ AUX)
    Blend: CC-PVDZ-JKFIT
    Number of shells: 66
    Number of basis function: 186
    Number of Cartesian functions: 212
    Spherical Harmonics?: true
    Max angular momentum: 3

  Minimum eigenvalue in the overlap matrix is 2.5170062048E-02.
  Using Symmetric Orthogonalization.

  SCF Guess: Orbitals guess was supplied from a previous computation.

  ==> Iterations <==

                           Total Energy        Delta E     RMS |[F,P]|

   @DF-RKS iter   0:  -151.55103816500386   -1.51551e+02   1.47115e-03 
   @DF-RKS iter   1:  -151.55001061548913    1.02755e-03   2.60863e-04 
   @DF-RKS iter   2:  -151.55003229533165   -2.16798e-05   1.45476e-04 DIIS
   @DF-RKS iter   3:  -151.55003855534781   -6.26002e-06   3.06142e-05 DIIS
   @DF-RKS iter   4:  -151.55003893272556   -3.77378e-07   7.56083e-06 DIIS
   @DF-RKS iter   5:  -151.55003895857760   -2.58520e-08   2.31472e-06 DIIS
   @DF-RKS iter   6:  -151.55003895946157   -8.83972e-10   2.34874e-06 DIIS
   @DF-RKS iter   7:  -151.55003896066384   -1.20227e-09   1.31836e-07 DIIS
   @DF-RKS iter   8:  -151.55003896067853   -1.46940e-11   1.52313e-08 DIIS
   @DF-RKS iter   9:  -151.55003896067885   -3.12639e-13   2.23455e-09 DIIS

  ==> Post-Iterations <==

    Orbital Energies (a.u.)
    -----------------------

    Doubly Occupied:                                                      

       1A    -19.185671     2A    -19.185633     3A     -1.100894  
       4A     -0.892035     5A     -0.504494     6A     -0.493697  
       7A     -0.390132     8A     -0.346289     9A     -0.246524  

    Virtual:                                                              

      10A      0.016029    11A      0.054826    12A      0.105692  
      13A      0.572440    14A      0.581915    15A      0.843446  
      16A      0.864000    17A      0.871272    18A      0.974657  
      19A      1.001431    20A      1.070683    21A      1.269152  
      22A      1.304466    23A      1.339780    24A      1.471099  
      25A      1.626824    26A      1.795142    27A      2.054293  
      28A      2.108104    29A      2.326156    30A      2.373787  
      31A      2.641686    32A      2.874057    33A      2.930588  
      34A      2.975835    35A      3.166149    36A      3.518179  
      37A      3.528970    38A      3.819327  

    Final Occupation by Irrep:
              A 
    DOCC [     9 ]

  Energy converged.

  @DF-RKS Final Energy:  -151.55003896067885

   => Energetics <=

    Nuclear Repulsion Energy =             36.4646847315863951
    One-Electron Energy =                -280.9562938872221594
    Two-Electron Energy =                 107.4008115332003683
    DFT Exchange-Correlation Energy =     -14.4588893782434660
    Empirical Dispersion Energy =          -0.0003519600000000
    PCM Polarization Energy =               0.0000000000000000
    EFP Energy =                            0.0000000000000000
    Total Energy =                       -151.5500389606788474



Properties will be evaluated at   0.000000,   0.000000,   0.000000 Bohr

Properties computed using the SCF density matrix

  Nuclear Dipole Moment: (a.u.)
     X:     0.0043      Y:     0.1917      Z:    -0.2217

  Electronic Dipole Moment: (a.u.)
     X:    -0.0009      Y:    -0.0403      Z:     0.0466

  Dipole Moment: (a.u.)
     X:     0.0034      Y:     0.1514      Z:    -0.1751     Total:     0.2315

  Dipole Moment: (Debye)
     X:     0.0086      Y:     0.3848      Z:    -0.4451     Total:     0.5884


*** tstop() called on computer03 at Fri Aug 11 14:18:31 2017
Module time:
	user time   =      13.68 seconds =       0.23 minutes
	system time =       0.52 seconds =       0.01 minutes
	total time  =          6 seconds =       0.10 minutes
Total time:
	user time   =      36.11 seconds =       0.60 minutes
	system time =       1.49 seconds =       0.02 minutes
	total time  =         14 seconds =       0.23 minutes

*** tstart() called on computer03
*** at Fri Aug 11 14:18:31 2017


         ------------------------------------------------------------
                                   SCF GRAD                          
                          Rob Parrish, Justin Turney,                
                       Andy Simmonett, and Alex Sokolov              
         ------------------------------------------------------------

  ==> Geometry <==

    Molecular point group: c1
    Full point group: C1

    Geometry (in Angstrom), charge = 0, multiplicity = 1:

       Center              X                  Y                   Z               Mass       
    ------------   -----------------  -----------------  -----------------  -----------------
           O         -0.732677998522     0.028689907319     0.023631997874    15.994914619560
           O          0.732389463430    -0.041577604546    -0.008725105619    15.994914619560
           H         -0.946332393183    -0.566356934819    -0.714744363749     1.007825032070
           H          0.950911654479     0.770894042183     0.478161166007     1.007825032070

  Nuclear repulsion =   36.464684731586395

  ==> Basis Set <==

  Basis Set: CC-PVDZ
    Blend: CC-PVDZ
    Number of shells: 18
    Number of basis function: 38
    Number of Cartesian functions: 40
    Spherical Harmonics?: true
    Max angular momentum: 2

  ==> DFJKGrad: Density-Fitted SCF Gradients <==

    Gradient:                    1
    J tasked:                  Yes
    K tasked:                  Yes
    wK tasked:                  No
    OpenMP threads:              8
    Integrals threads:           8
    Memory (MB):              1430
    Schwarz Cutoff:          0E+00
    Fitting Condition:       1E-12

   => Auxiliary Basis Set <=

  Basis Set: (CC-PVDZ AUX)
    Blend: CC-PVDZ-JKFIT
    Number of shells: 66
    Number of basis function: 186
    Number of Cartesian functions: 212
    Spherical Harmonics?: true
    Max angular momentum: 3

  ==> DFT Potential <==

   => B3LYP Composite Functional <= 

    B3LYP Hybrid-GGA Exchange-Correlation Functional (VWN1-RPA)

    P.J. Stephens et. al., J. Phys. Chem., 98, 11623-11627, 1994

    Points   =           5000
    Deriv    =              1
    GGA      =           TRUE
    Meta     =          FALSE

    X_LRC        =          FALSE
    X_Hybrid     =           TRUE
    X_Alpha      =   2.000000E-01
    X_Omega      =   0.000000E+00
    C_LRC        =          FALSE
    C_Hybrid     =          FALSE
    C_Alpha      =   0.000000E+00
    C_Omega      =   0.000000E+00

   => Exchange Functionals <=

    0.8000    B3_X
    0.2000      HF 

   => Correlation Functionals <=

    0.1900 VWN3RPA_C
    0.8100   LYP_C

   => Molecular Quadrature <=

    Radial Scheme    =       TREUTLER
    Pruning Scheme   =           FLAT
    Nuclear Scheme   =       TREUTLER

    BS radius alpha  =              1
    Pruning alpha    =              1
    Radial Points    =             75
    Spherical Points =            302
    Total Points     =          88346
    Total Blocks     =             87
    Max Points       =           4956
    Max Functions    =             38


  -Total Gradient:
     Atom            X                  Y                   Z
    ------   -----------------  -----------------  -----------------
       1       -0.002304889764    -0.003850602730    -0.004509239252
       2        0.002331444677     0.004977082969     0.003211968426
       3       -0.004137768342     0.000016368599     0.001077190385
       4        0.004111039759    -0.001150587928     0.000229033451


*** tstop() called on computer03 at Fri Aug 11 14:18:32 2017
Module time:
	user time   =       4.43 seconds =       0.07 minutes
	system time =       0.21 seconds =       0.00 minutes
	total time  =          1 seconds =       0.02 minutes
Total time:
	user time   =      40.67 seconds =       0.68 minutes
	system time =       1.71 seconds =       0.03 minutes
	total time  =         15 seconds =       0.25 minutes

			-----------------------------------------
			 OPTKING 2.0: for geometry optimizations 
			  - R.A. King,  Bethel University        
			-----------------------------------------
	At level 1: Red. Int., RFO, no backsteps, dynamic trust

	Previous internal coordinate definitions found.
	---Fragment 1 Geometry and Gradient---
	 O          -1.3845607608        0.0542160676        0.0446580040
	 O           1.3840155085       -0.0785702859       -0.0164880601
	 H          -1.7883090538       -1.0702595003       -1.3506711025
	 H           1.7969626035        1.4567786172        0.9035936511
	            -0.0023048898       -0.0038506027       -0.0045092393
	             0.0023314447        0.0049770830        0.0032119684
	            -0.0041377683        0.0000163686        0.0010771904
	             0.0041110398       -0.0011505879        0.0002290335

	---Fragment 1 Intrafragment Coordinates---
	 - Coordinate -           - BOHR/RAD -       - ANG/DEG -
	 R(1,2)           =         2.772433	       1.467108
	 R(1,3)           =         1.836954	       0.972074
	 R(2,4)           =         1.836946	       0.972070
	 B(1,2,4)         =         1.745087	      99.986125
	 B(2,1,3)         =         1.745093	      99.986439
	*D(3,1,2,4)       =         2.792527	     159.999999

	Current energy   :      -151.5500389607

	Energy change for the previous step:
		Projected    :        -0.0013499766
		Actual       :        -0.0001760414
	Energy ratio indicates iffy step: Trust radius decreased to 1.250e-01.


	Performing BFGS update.
	Previous computed or guess Hessian on step 1.
	Steps to be used in Hessian update: 1
	Taking RFO optimization step.
	Going to follow RFO solution 1.
	Using RFO vector 1.
	Norm of target step-size    0.03917
	Projected energy change by RFO approximation:        -0.0001618068

	Back-transformation to cartesian coordinates...
	Successfully converged to displaced geometry.

	Back-transformation to cartesian coordinates to adjust frozen coordinates...
	Successfully converged to displaced geometry.

	--- Internal Coordinate Step in ANG or DEG, aJ/ANG or AJ/DEG ---
	 ---------------------------------------------------------------------------
	   Coordinate                Previous        Force       Change         New 
	   ----------                --------       ------       ------       ------
	    1 R(1,2)          =      1.467108    -0.050885    -0.004814     1.462295
	    2 R(1,3)          =      0.972074    -0.000661    -0.000094     0.971980
	    3 R(2,4)          =      0.972070    -0.000628    -0.000091     0.971979
	    4 B(1,2,4)        =     99.986125    -0.000588    -1.543401    98.442724
	    5 B(2,1,3)        =     99.986439    -0.000588    -1.543578    98.442861
	    6 *D(3,1,2,4)     =    159.999999     0.000000     0.000000   159.999999
	 ---------------------------------------------------------------------------
	Successfully symmetrized geometry.

  ==> Convergence Check <==

  Measures of convergence in internal coordinates in au.
  Criteria marked as inactive (o), active & met (*), and active & unmet ( ).
  ---------------------------------------------------------------------------------------------
   Step     Total Energy     Delta E     MAX Force     RMS Force      MAX Disp      RMS Disp   
  ---------------------------------------------------------------------------------------------
    Convergence Criteria    1.00e-06 *    3.00e-04 *             o    1.20e-03 *             o
  ---------------------------------------------------------------------------------------------
      2    -151.55003896   -1.76e-04      7.73e-03      5.13e-03 o    2.69e-02      1.60e-02 o  ~
  ---------------------------------------------------------------------------------------------

	Writing optimization data to binary file.
	Structure for next step:
	Cartesian Geometry (in Angstrom)
	    O    -0.7297064678   0.0358796302   0.0303764391
	    O     0.7294056746  -0.0492340370  -0.0149316424
	    H    -0.9305285723  -0.5608313742  -0.7101315539
	    H     0.9351200917   0.7658351911   0.4730104517
			--------------------------
			 OPTKING Finished Execution 
			--------------------------

    Structure for next step:
    Molecular point group: c1
    Full point group: C1

    Geometry (in Angstrom), charge = 0, multiplicity = 1:

    O           -0.729701065322     0.036085321122     0.030139370782
    O            0.729411077042    -0.049028346080    -0.015168710736
    H           -0.930523169781    -0.560625683328    -0.710368622280
    H            0.935125494217     0.766040881926     0.472773383414

gradient() will perform analytic gradient computation.

*** tstart() called on computer03
*** at Fri Aug 11 14:18:32 2017

   => Loading Basis Set <=

    Name: CC-PVDZ
    Role: ORBITAL
    Keyword: BASIS
    atoms 1-2 entry O          line   190 file /home/raimis/opt/miniconda3/envs/htmd/share/psi4/basis/cc-pvdz.gbs 
    atoms 3-4 entry H          line    20 file /home/raimis/opt/miniconda3/envs/htmd/share/psi4/basis/cc-pvdz.gbs 


         ---------------------------------------------------------
                                   SCF
            by Justin Turney, Rob Parrish, and Andy Simmonett
                              RKS Reference
                        8 Threads,   1907 MiB Core
         ---------------------------------------------------------

  ==> Geometry <==

    Molecular point group: c1
    Full point group: C1

    Geometry (in Angstrom), charge = 0, multiplicity = 1:

       Center              X                  Y                   Z               Mass       
    ------------   -----------------  -----------------  -----------------  -----------------
           O         -0.729701065322     0.036085321122     0.030139370782    15.994914619560
           O          0.729411077042    -0.049028346080    -0.015168710736    15.994914619560
           H         -0.930523169781    -0.560625683328    -0.710368622280     1.007825032070
           H          0.935125494217     0.766040881926     0.472773383414     1.007825032070

  Running in c1 symmetry.

  Rotational constants: A =      9.93816  B =      0.89399  C =      0.82445 [cm^-1]
  Rotational constants: A = 297938.52691  B =  26801.03470  C =  24716.24031 [MHz]
  Nuclear repulsion =   36.602127066987428

  Charge       = 0
  Multiplicity = 1
  Electrons    = 18
  Nalpha       = 9
  Nbeta        = 9

  ==> Algorithm <==

  SCF Algorithm Type is DF.
  DIIS enabled.
  MOM disabled.
  Fractional occupation disabled.
  Guess Type is READ.
  Energy threshold   = 1.00e-08
  Density threshold  = 1.00e-08
  Integral threshold = 0.00e+00

  ==> Primary Basis <==

  Basis Set: CC-PVDZ
    Blend: CC-PVDZ
    Number of shells: 18
    Number of basis function: 38
    Number of Cartesian functions: 40
    Spherical Harmonics?: true
    Max angular momentum: 2

  ==> DFT Potential <==

   => B3LYP Composite Functional <= 

    B3LYP Hybrid-GGA Exchange-Correlation Functional (VWN1-RPA)

    P.J. Stephens et. al., J. Phys. Chem., 98, 11623-11627, 1994

    Points   =           5000
    Deriv    =              1
    GGA      =           TRUE
    Meta     =          FALSE

    X_LRC        =          FALSE
    X_Hybrid     =           TRUE
    X_Alpha      =   2.000000E-01
    X_Omega      =   0.000000E+00
    C_LRC        =          FALSE
    C_Hybrid     =          FALSE
    C_Alpha      =   0.000000E+00
    C_Omega      =   0.000000E+00

   => Exchange Functionals <=

    0.8000    B3_X
    0.2000      HF 

   => Correlation Functionals <=

    0.1900 VWN3RPA_C
    0.8100   LYP_C

   => Molecular Quadrature <=

    Radial Scheme    =       TREUTLER
    Pruning Scheme   =           FLAT
    Nuclear Scheme   =       TREUTLER

    BS radius alpha  =              1
    Pruning alpha    =              1
    Radial Points    =             75
    Spherical Points =            302
    Total Points     =          88340
    Total Blocks     =             89
    Max Points       =           4919
    Max Functions    =             38

   => -D3ZERO: Empirical Dispersion <=

    Grimme's -D3 (zero-damping) Dispersion Correction
    Grimme S.; Antony J.; Ehrlich S.; Krieg H. (2010), J. Chem. Phys., 132: 154104

        S6 =   1.000000E+00
        S8 =   1.703000E+00
       SR6 =   1.261000E+00
    ALPHA6 =   1.400000E+01

   => Loading Basis Set <=

    Name: (CC-PVDZ AUX)
    Role: JKFIT
    Keyword: DF_BASIS_SCF
    atoms 1-2 entry O          line   220 file /home/raimis/opt/miniconda3/envs/htmd/share/psi4/basis/cc-pvdz-jkfit.gbs 
    atoms 3-4 entry H          line    50 file /home/raimis/opt/miniconda3/envs/htmd/share/psi4/basis/cc-pvdz-jkfit.gbs 

  Reading orbitals from file 180, no projection.

  ==> Pre-Iterations <==

   -------------------------------------------------------
    Irrep   Nso     Nmo     Nalpha   Nbeta   Ndocc  Nsocc
   -------------------------------------------------------
     A         38      38       0       0       0       0
   -------------------------------------------------------
    Total      38      38       9       9       9       0
   -------------------------------------------------------

  ==> Integral Setup <==

  ==> DFJK: Density-Fitted J/K Matrices <==

    J tasked:                  Yes
    K tasked:                  Yes
    wK tasked:                  No
    OpenMP threads:              8
    Integrals threads:           8
    Memory (MB):              1430
    Algorithm:                Core
    Integral Cache:           NONE
    Schwarz Cutoff:          1E-12
    Fitting Condition:       1E-12

   => Auxiliary Basis Set <=

  Basis Set: (CC-PVDZ AUX)
    Blend: CC-PVDZ-JKFIT
    Number of shells: 66
    Number of basis function: 186
    Number of Cartesian functions: 212
    Spherical Harmonics?: true
    Max angular momentum: 3

  Minimum eigenvalue in the overlap matrix is 2.4661796723E-02.
  Using Symmetric Orthogonalization.

  SCF Guess: Orbitals guess was supplied from a previous computation.

  ==> Iterations <==

                           Total Energy        Delta E     RMS |[F,P]|

   @DF-RKS iter   0:  -151.55179998241874   -1.51552e+02   7.09197e-04 
   @DF-RKS iter   1:  -151.55027974616141    1.52024e-03   8.68530e-05 
   @DF-RKS iter   2:  -151.55028249932883   -2.75317e-06   3.67506e-05 DIIS
   @DF-RKS iter   3:  -151.55028303226933   -5.32941e-07   5.71648e-06 DIIS
   @DF-RKS iter   4:  -151.55028304012038   -7.85104e-09   5.25966e-06 DIIS
   @DF-RKS iter   5:  -151.55028304504776   -4.92739e-09   4.20475e-07 DIIS
   @DF-RKS iter   6:  -151.55028304513732   -8.95568e-11   1.87921e-07 DIIS
   @DF-RKS iter   7:  -151.55028304514485   -7.53175e-12   1.47796e-07 DIIS
   @DF-RKS iter   8:  -151.55028304515398   -9.12337e-12   6.17731e-09 DIIS

  ==> Post-Iterations <==

    Orbital Energies (a.u.)
    -----------------------

    Doubly Occupied:                                                      

       1A    -19.185699     2A    -19.185660     3A     -1.104606  
       4A     -0.890498     5A     -0.500856     6A     -0.497668  
       7A     -0.392118     8A     -0.348533     9A     -0.246047  

    Virtual:                                                              

      10A      0.020057    11A      0.053871    12A      0.105803  
      13A      0.576374    14A      0.579752    15A      0.843961  
      16A      0.858027    17A      0.870871    18A      0.973250  
      19A      1.001287    20A      1.070596    21A      1.260698  
      22A      1.308936    23A      1.337953    24A      1.471093  
      25A      1.639739    26A      1.790198    27A      2.054166  
      28A      2.110775    29A      2.320092    30A      2.377962  
      31A      2.645568    32A      2.873395    33A      2.930339  
      34A      2.983691    35A      3.167349    36A      3.517306  
      37A      3.522435    38A      3.828840  

    Final Occupation by Irrep:
              A 
    DOCC [     9 ]

  Energy converged.

  @DF-RKS Final Energy:  -151.55028304515398

   => Energetics <=

    Nuclear Repulsion Energy =             36.6021270669874283
    One-Electron Energy =                -281.2172604704376795
    Two-Electron Energy =                 107.5268215164220322
    DFT Exchange-Correlation Energy =     -14.4616330381257452
    Empirical Dispersion Energy =          -0.0003381200000000
    PCM Polarization Energy =               0.0000000000000000
    EFP Energy =                            0.0000000000000000
    Total Energy =                       -151.5502830451539751



Properties will be evaluated at   0.000000,   0.000000,   0.000000 Bohr

Properties computed using the SCF density matrix

  Nuclear Dipole Moment: (a.u.)
     X:     0.0043      Y:     0.1925      Z:    -0.2227

  Electronic Dipole Moment: (a.u.)
     X:    -0.0009      Y:    -0.0413      Z:     0.0477

  Dipole Moment: (a.u.)
     X:     0.0034      Y:     0.1512      Z:    -0.1749     Total:     0.2313

  Dipole Moment: (Debye)
     X:     0.0086      Y:     0.3844      Z:    -0.4446     Total:     0.5878


*** tstop() called on computer03 at Fri Aug 11 14:18:38 2017
Module time:
	user time   =      13.37 seconds =       0.22 minutes
	system time =       0.49 seconds =       0.01 minutes
	total time  =          6 seconds =       0.10 minutes
Total time:
	user time   =      54.31 seconds =       0.91 minutes
	system time =       2.22 seconds =       0.04 minutes
	total time  =         21 seconds =       0.35 minutes

*** tstart() called on computer03
*** at Fri Aug 11 14:18:38 2017


         ------------------------------------------------------------
                                   SCF GRAD                          
                          Rob Parrish, Justin Turney,                
                       Andy Simmonett, and Alex Sokolov              
         ------------------------------------------------------------

  ==> Geometry <==

    Molecular point group: c1
    Full point group: C1

    Geometry (in Angstrom), charge = 0, multiplicity = 1:

       Center              X                  Y                   Z               Mass       
    ------------   -----------------  -----------------  -----------------  -----------------
           O         -0.729701065322     0.036085321122     0.030139370782    15.994914619560
           O          0.729411077042    -0.049028346080    -0.015168710736    15.994914619560
           H         -0.930523169781    -0.560625683328    -0.710368622280     1.007825032070
           H          0.935125494217     0.766040881926     0.472773383414     1.007825032070

  Nuclear repulsion =   36.602127066987428

  ==> Basis Set <==

  Basis Set: CC-PVDZ
    Blend: CC-PVDZ
    Number of shells: 18
    Number of basis function: 38
    Number of Cartesian functions: 40
    Spherical Harmonics?: true
    Max angular momentum: 2

  ==> DFJKGrad: Density-Fitted SCF Gradients <==

    Gradient:                    1
    J tasked:                  Yes
    K tasked:                  Yes
    wK tasked:                  No
    OpenMP threads:              8
    Integrals threads:           8
    Memory (MB):              1430
    Schwarz Cutoff:          0E+00
    Fitting Condition:       1E-12

   => Auxiliary Basis Set <=

  Basis Set: (CC-PVDZ AUX)
    Blend: CC-PVDZ-JKFIT
    Number of shells: 66
    Number of basis function: 186
    Number of Cartesian functions: 212
    Spherical Harmonics?: true
    Max angular momentum: 3

  ==> DFT Potential <==

   => B3LYP Composite Functional <= 

    B3LYP Hybrid-GGA Exchange-Correlation Functional (VWN1-RPA)

    P.J. Stephens et. al., J. Phys. Chem., 98, 11623-11627, 1994

    Points   =           5000
    Deriv    =              1
    GGA      =           TRUE
    Meta     =          FALSE

    X_LRC        =          FALSE
    X_Hybrid     =           TRUE
    X_Alpha      =   2.000000E-01
    X_Omega      =   0.000000E+00
    C_LRC        =          FALSE
    C_Hybrid     =          FALSE
    C_Alpha      =   0.000000E+00
    C_Omega      =   0.000000E+00

   => Exchange Functionals <=

    0.8000    B3_X
    0.2000      HF 

   => Correlation Functionals <=

    0.1900 VWN3RPA_C
    0.8100   LYP_C

   => Molecular Quadrature <=

    Radial Scheme    =       TREUTLER
    Pruning Scheme   =           FLAT
    Nuclear Scheme   =       TREUTLER

    BS radius alpha  =              1
    Pruning alpha    =              1
    Radial Points    =             75
    Spherical Points =            302
    Total Points     =          88340
    Total Blocks     =             89
    Max Points       =           4919
    Max Functions    =             38


  -Total Gradient:
     Atom            X                  Y                   Z
    ------   -----------------  -----------------  -----------------
       1       -0.000003648440     0.000418192364    -0.000461966142
       2        0.000022328864     0.000397120341    -0.000479806282
       3       -0.000144007783    -0.000517769516     0.000374974623
       4        0.000125282709    -0.000299519101     0.000569083505


*** tstop() called on computer03 at Fri Aug 11 14:18:40 2017
Module time:
	user time   =       5.09 seconds =       0.08 minutes
	system time =       0.24 seconds =       0.00 minutes
	total time  =          2 seconds =       0.03 minutes
Total time:
	user time   =      59.52 seconds =       0.99 minutes
	system time =       2.47 seconds =       0.04 minutes
	total time  =         23 seconds =       0.38 minutes

			-----------------------------------------
			 OPTKING 2.0: for geometry optimizations 
			  - R.A. King,  Bethel University        
			-----------------------------------------
	At level 1: Red. Int., RFO, no backsteps, dynamic trust

	Previous internal coordinate definitions found.
	---Fragment 1 Geometry and Gradient---
	 O          -1.3789351723        0.0681913743        0.0569551566
	 O           1.3783871739       -0.0926501468       -0.0286647091
	 H          -1.7584339512       -1.0594290046       -1.3424021495
	 H           1.7671310839        1.4476074734        0.8934122176
	            -0.0000036484        0.0004181924       -0.0004619661
	             0.0000223289        0.0003971203       -0.0004798063
	            -0.0001440078       -0.0005177695        0.0003749746
	             0.0001252827       -0.0002995191        0.0005690835

	---Fragment 1 Intrafragment Coordinates---
	 - Coordinate -           - BOHR/RAD -       - ANG/DEG -
	 R(1,2)           =         2.763336	       1.462295
	 R(1,3)           =         1.836777	       0.971980
	 R(2,4)           =         1.836775	       0.971979
	 B(1,2,4)         =         1.718150	      98.442724
	 B(2,1,3)         =         1.718152	      98.442861
	*D(3,1,2,4)       =         2.792527	     159.999999

	Current energy   :      -151.5502830452

	Energy change for the previous step:
		Projected    :        -0.0001618068
		Actual       :        -0.0002440845
	Energy ratio indicates good step: Trust radius increased to 3.750e-01.


	Performing BFGS update.
	Previous computed or guess Hessian on step 1.
	Steps to be used in Hessian update: 2 1
	Taking RFO optimization step.
	Going to follow RFO solution 1.
	Using RFO vector 1.
	Norm of target step-size    0.00112
	Projected energy change by RFO approximation:        -0.0000005751

	Back-transformation to cartesian coordinates...
	Successfully converged to displaced geometry.

	Back-transformation to cartesian coordinates to adjust frozen coordinates...
	Successfully converged to displaced geometry.

	--- Internal Coordinate Step in ANG or DEG, aJ/ANG or AJ/DEG ---
	 ---------------------------------------------------------------------------
	   Coordinate                Previous        Force       Change         New 
	   ----------                --------       ------       ------       ------
	    1 R(1,2)          =      1.462295    -0.001169    -0.000088     1.462207
	    2 R(1,3)          =      0.971980    -0.000492    -0.000063     0.971918
	    3 R(2,4)          =      0.971979    -0.000485    -0.000062     0.971918
	    4 B(1,2,4)        =     98.442724    -0.000017    -0.044227    98.398497
	    5 B(2,1,3)        =     98.442861    -0.000017    -0.044373    98.398487
	    6 *D(3,1,2,4)     =    159.999999     0.000000    -0.000000   159.999999
	 ---------------------------------------------------------------------------
	Successfully symmetrized geometry.

  ==> Convergence Check <==

  Measures of convergence in internal coordinates in au.
  Criteria marked as inactive (o), active & met (*), and active & unmet ( ).
  ---------------------------------------------------------------------------------------------
   Step     Total Energy     Delta E     MAX Force     RMS Force      MAX Disp      RMS Disp   
  ---------------------------------------------------------------------------------------------
    Convergence Criteria    1.00e-06 *    3.00e-04 *             o    1.20e-03 *             o
  ---------------------------------------------------------------------------------------------
      3    -151.55028305   -2.44e-04      2.22e-04 *    1.45e-04 o    7.74e-04 *    4.57e-04 o  ~
  ---------------------------------------------------------------------------------------------


  **** Optimization is complete! (in 3 steps) ****

  ==> Optimization Summary <==

  Measures of convergence in internal coordinates in au.
  --------------------------------------------------------------------------------------------------------------- ~
   Step         Total Energy             Delta E       MAX Force       RMS Force        MAX Disp        RMS Disp  ~
  --------------------------------------------------------------------------------------------------------------- ~
      1    -151.549862919302   -151.549862919302      0.00992260      0.00726495      0.05961940      0.03630788  ~
      2    -151.550038960679     -0.000176041377      0.00773069      0.00512628      0.02694051      0.01599078  ~
      3    -151.550283045154     -0.000244084475      0.00022183      0.00014457      0.00077446      0.00045653  ~
  --------------------------------------------------------------------------------------------------------------- ~

	Writing optimization data to binary file.
	Final energy is   -151.5502830451540
	Final (previous) structure:
	Cartesian Geometry (in Angstrom)
	    O    -0.7297010653   0.0360853211   0.0301393708
	    O     0.7294110770  -0.0490283461  -0.0151687107
	    H    -0.9305231698  -0.5606256833  -0.7103686223
	    H     0.9351254942   0.7660408819   0.4727733834
	Saving final (previous) structure.
			--------------------------
			 OPTKING Finished Execution 
			--------------------------

    Final optimized geometry and variables:
    Molecular point group: c1
    Full point group: C1

    Geometry (in Angstrom), charge = 0, multiplicity = 1:

    O           -0.729701065322     0.036085321122     0.030139370782
    O            0.729411077042    -0.049028346080    -0.015168710736
    H           -0.930523169781    -0.560625683328    -0.710368622280
    H            0.935125494217     0.766040881926     0.472773383414

	Cleaning optimization helper files.


Properties will be evaluated at   0.000000,   0.000000,   0.000000 Bohr

Properties computed using the  density matrix

  Nuclear Dipole Moment: (a.u.)
     X:     0.0043      Y:     0.1925      Z:    -0.2227

  Electronic Dipole Moment: (a.u.)
     X:    -0.0009      Y:    -0.0413      Z:     0.0477

  Dipole Moment: (a.u.)
     X:     0.0034      Y:     0.1512      Z:    -0.1749     Total:     0.2313

  Dipole Moment: (Debye)
     X:     0.0086      Y:     0.3844      Z:    -0.4446     Total:     0.5878

  Quadrupole Moment: (Debye Ang)
    XX:   -10.6777     YY:   -10.1163     ZZ:   -10.5600
    XY:     2.6005     XZ:     2.2782     YZ:     1.8700

  Traceless Quadrupole Moment: (Debye Ang)
    XX:    -0.2264     YY:     0.3351     ZZ:    -0.1087
    XY:     2.6005     XZ:     2.2782     YZ:     1.8700

  Mulliken Charges: (a.u.)
   Center  Symbol    Alpha    Beta     Spin     Total
       1     O     4.09082  4.09082  0.00000 -0.18164
       2     O     4.09082  4.09082  0.00000 -0.18164
       3     H     0.40918  0.40918  0.00000  0.18164
       4     H     0.40918  0.40918  0.00000  0.18164

   Total alpha =  9.00000, Total beta =  9.00000, Total charge = -0.00000


*** Psi4 exiting successfully. Buy a developer a beer!
