
    -----------------------------------------------------------------------
          Psi4: An Open-Source Ab Initio Electronic Structure Package
                               Psi4 1.1 release

                         Git: Rev {HEAD} add49b9 


    R. M. Parrish, L. A. Burns, D. G. A. Smith, A. C. Simmonett,
    A. E. DePrince III, E. G. Hohenstein, U. Bozkaya, A. Yu. Sokolov,
    R. Di Remigio, R. M. Richard, J. F. Gonthier, A. M. James,
    H. R. McAlexander, A. Kumar, M. Saitow, X. Wang, B. P. Pritchard,
    P. Verma, H. F. Schaefer III, K. Patkowski, R. A. King, E. F. Valeev,
    F. A. Evangelista, J. M. Turney, T. D. Crawford, and C. D. Sherrill,
    J. Chem. Theory Comput. in press (2017).
    (doi: 10.1021/acs.jctc.7b00174)

    -----------------------------------------------------------------------


    Psi4 started on: Tuesday, 12 December 2017 11:19AM

    Process ID:  27789
    PSIDATADIR: /shared/raimis/opt/miniconda/envs/htmd/share/psi4
    Memory:     500.0 MiB
    Threads:    1
    
  ==> Input File <==

--------------------------------------------------------------------------
set_num_threads(1)
set_memory(4203741184)

set { reference rks }
set { basis cc-pVDZ }

molecule MOL {
    0 1
    noreorient
    nocom
    symmetry c1
    O    1.050400   0.042900  -0.048100
    C    2.474100   0.047400  -0.029000
    C    3.002600  -1.068900  -0.932000
    N    4.462700  -1.072400  -1.006800
    H    0.763186  -0.546123   0.670629
    H    2.809900  -0.097900   1.003200
    H    2.817400   1.026800  -0.378600
    H    2.581000  -0.963300  -1.938400
    H    2.653800  -2.036400  -0.553400
    H    4.779000  -0.221000  -1.470000
    H    4.758600  -1.842500  -1.606500
}

set optking { frozen_dihedral = (" 3 2 1 5 ") }

energy, wfn = energy('B3LYP-D3', return_wfn=True)

import os
os.chdir(os.environ['HTMD_PSI4_WORKDIR'])

oeprop(wfn, 'DIPOLE', 'QUADRUPOLE', 'MULLIKEN_CHARGES')

with open('psi4out.xyz', 'w') as f:
    f.write('11 ' )
    f.write('%.12f\n' % energy)
    f.write(MOL.save_string_xyz())
--------------------------------------------------------------------------
  Threads set to 1 by Python driver.

  Memory set to   3.915 GiB by Python driver.

*** tstart() called on computer06
*** at Tue Dec 12 11:19:32 2017

   => Loading Basis Set <=

    Name: CC-PVDZ
    Role: ORBITAL
    Keyword: BASIS
    atoms 1    entry O          line   190 file /shared/raimis/opt/miniconda/envs/htmd/share/psi4/basis/cc-pvdz.gbs 
    atoms 2-3  entry C          line   130 file /shared/raimis/opt/miniconda/envs/htmd/share/psi4/basis/cc-pvdz.gbs 
    atoms 4    entry N          line   160 file /shared/raimis/opt/miniconda/envs/htmd/share/psi4/basis/cc-pvdz.gbs 
    atoms 5-11 entry H          line    20 file /shared/raimis/opt/miniconda/envs/htmd/share/psi4/basis/cc-pvdz.gbs 


         ---------------------------------------------------------
                                   SCF
            by Justin Turney, Rob Parrish, and Andy Simmonett
                              RKS Reference
                        1 Threads,   4009 MiB Core
         ---------------------------------------------------------

  ==> Geometry <==

    Molecular point group: c1
    Full point group: C1

    Geometry (in Angstrom), charge = 0, multiplicity = 1:

       Center              X                  Y                   Z               Mass       
    ------------   -----------------  -----------------  -----------------  -----------------
           O          1.050400000000     0.042900000000    -0.048100000000    15.994914619560
           C          2.474100000000     0.047400000000    -0.029000000000    12.000000000000
           C          3.002600000000    -1.068900000000    -0.932000000000    12.000000000000
           N          4.462700000000    -1.072400000000    -1.006800000000    14.003074004780
           H          0.763186000000    -0.546123000000     0.670629000000     1.007825032070
           H          2.809900000000    -0.097900000000     1.003200000000     1.007825032070
           H          2.817400000000     1.026800000000    -0.378600000000     1.007825032070
           H          2.581000000000    -0.963300000000    -1.938400000000     1.007825032070
           H          2.653800000000    -2.036400000000    -0.553400000000     1.007825032070
           H          4.779000000000    -0.221000000000    -1.470000000000     1.007825032070
           H          4.758600000000    -1.842500000000    -1.606500000000     1.007825032070

  Running in c1 symmetry.

  Rotational constants: A =      0.73432  B =      0.02758  C =      0.02699 [cm^-1]
  Rotational constants: A =  22014.26435  B =    826.96912  C =    809.11023 [MHz]
  Nuclear repulsion =  130.675911568209841

  Charge       = 0
  Multiplicity = 1
  Electrons    = 34
  Nalpha       = 17
  Nbeta        = 17

  ==> Algorithm <==

  SCF Algorithm Type is DF.
  DIIS enabled.
  MOM disabled.
  Fractional occupation disabled.
  Guess Type is SAD.
  Energy threshold   = 1.00e-06
  Density threshold  = 1.00e-06
  Integral threshold = 0.00e+00

  ==> Primary Basis <==

  Basis Set: CC-PVDZ
    Blend: CC-PVDZ
    Number of shells: 45
    Number of basis function: 91
    Number of Cartesian functions: 95
    Spherical Harmonics?: true
    Max angular momentum: 2

  ==> DFT Potential <==

   => B3LYP Composite Functional <= 

    B3LYP Hybrid-GGA Exchange-Correlation Functional (VWN1-RPA)

    P.J. Stephens et. al., J. Phys. Chem., 98, 11623-11627, 1994

    Points   =           5000
    Deriv    =              1
    GGA      =           TRUE
    Meta     =          FALSE

    X_LRC        =          FALSE
    X_Hybrid     =           TRUE
    X_Alpha      =   2.000000E-01
    X_Omega      =   0.000000E+00
    C_LRC        =          FALSE
    C_Hybrid     =          FALSE
    C_Alpha      =   0.000000E+00
    C_Omega      =   0.000000E+00

   => Exchange Functionals <=

    0.8000    B3_X
    0.2000      HF 

   => Correlation Functionals <=

    0.1900 VWN3RPA_C
    0.8100   LYP_C

   => Molecular Quadrature <=

    Radial Scheme    =       TREUTLER
    Pruning Scheme   =           FLAT
    Nuclear Scheme   =       TREUTLER

    BS radius alpha  =              1
    Pruning alpha    =              1
    Radial Points    =             75
    Spherical Points =            302
    Total Points     =         245069
    Total Blocks     =            220
    Max Points       =           4674
    Max Functions    =             91

   => -D3ZERO: Empirical Dispersion <=

    Grimme's -D3 (zero-damping) Dispersion Correction
    Grimme S.; Antony J.; Ehrlich S.; Krieg H. (2010), J. Chem. Phys., 132: 154104

        S6 =   1.000000E+00
        S8 =   1.703000E+00
       SR6 =   1.261000E+00
    ALPHA6 =   1.400000E+01

   => Loading Basis Set <=

    Name: (CC-PVDZ AUX)
    Role: JKFIT
    Keyword: DF_BASIS_SCF
    atoms 1    entry O          line   220 file /shared/raimis/opt/miniconda/envs/htmd/share/psi4/basis/cc-pvdz-jkfit.gbs 
    atoms 2-3  entry C          line   120 file /shared/raimis/opt/miniconda/envs/htmd/share/psi4/basis/cc-pvdz-jkfit.gbs 
    atoms 4    entry N          line   170 file /shared/raimis/opt/miniconda/envs/htmd/share/psi4/basis/cc-pvdz-jkfit.gbs 
    atoms 5-11 entry H          line    50 file /shared/raimis/opt/miniconda/envs/htmd/share/psi4/basis/cc-pvdz-jkfit.gbs 

  ==> Pre-Iterations <==

   -------------------------------------------------------
    Irrep   Nso     Nmo     Nalpha   Nbeta   Ndocc  Nsocc
   -------------------------------------------------------
     A         91      91       0       0       0       0
   -------------------------------------------------------
    Total      91      91      17      17      17       0
   -------------------------------------------------------

  ==> Integral Setup <==

  ==> DFJK: Density-Fitted J/K Matrices <==

    J tasked:                  Yes
    K tasked:                  Yes
    wK tasked:                  No
    OpenMP threads:              1
    Integrals threads:           1
    Memory (MB):              3006
    Algorithm:                Core
    Integral Cache:           NONE
    Schwarz Cutoff:          1E-12
    Fitting Condition:       1E-12

   => Auxiliary Basis Set <=

  Basis Set: (CC-PVDZ AUX)
    Blend: CC-PVDZ-JKFIT
    Number of shells: 159
    Number of basis function: 441
    Number of Cartesian functions: 499
    Spherical Harmonics?: true
    Max angular momentum: 3

  Minimum eigenvalue in the overlap matrix is 4.4801407350E-03.
  Using Symmetric Orthogonalization.

  SCF Guess: Superposition of Atomic Densities via on-the-fly atomic UHF.

  ==> Iterations <==

                           Total Energy        Delta E     RMS |[F,P]|

   @DF-RKS iter   0:  -210.80201827882541   -2.10802e+02   3.62470e-02 
   @DF-RKS iter   1:  -210.19963943862632    6.02379e-01   7.34014e-03 
   @DF-RKS iter   2:  -210.04763105976485    1.52008e-01   9.97246e-03 DIIS
   @DF-RKS iter   3:  -210.39058627942532   -3.42955e-01   6.11617e-04 DIIS
   @DF-RKS iter   4:  -210.39137408660389   -7.87807e-04   3.82924e-04 DIIS
   @DF-RKS iter   5:  -210.39190158213691   -5.27496e-04   5.42116e-05 DIIS
   @DF-RKS iter   6:  -210.39190963643287   -8.05430e-06   2.51040e-05 DIIS
   @DF-RKS iter   7:  -210.39191190252083   -2.26609e-06   2.15085e-06 DIIS
   @DF-RKS iter   8:  -210.39191191986450   -1.73437e-08   6.32486e-07 DIIS

  ==> Post-Iterations <==

    Orbital Energies (a.u.)
    -----------------------

    Doubly Occupied:                                                      

       1A    -19.129459     2A    -14.304305     3A    -10.224704  
       4A    -10.200221     5A     -1.011763     6A     -0.876486  
       7A     -0.710751     8A     -0.604592     9A     -0.507816  
      10A     -0.485783    11A     -0.441435    12A     -0.423555  
      13A     -0.392565    14A     -0.367827    15A     -0.320875  
      16A     -0.265190    17A     -0.230940  

    Virtual:                                                              

      18A      0.049072    19A      0.055841    20A      0.095370  
      21A      0.123553    22A      0.127779    23A      0.150888  
      24A      0.164247    25A      0.207448    26A      0.245664  
      27A      0.260944    28A      0.435210    29A      0.446899  
      30A      0.481459    31A      0.501567    32A      0.569183  
      33A      0.578734    34A      0.602735    35A      0.608120  
      36A      0.631470    37A      0.649049    38A      0.663346  
      39A      0.683648    40A      0.700222    41A      0.812592  
      42A      0.827357    43A      0.844661    44A      0.925051  
      45A      0.964165    46A      1.004572    47A      1.021833  
      48A      1.067253    49A      1.100364    50A      1.215403  
      51A      1.236979    52A      1.262039    53A      1.346339  
      54A      1.367821    55A      1.441372    56A      1.470808  
      57A      1.513436    58A      1.592908    59A      1.632776  
      60A      1.644384    61A      1.659761    62A      1.687449  
      63A      1.691255    64A      1.731265    65A      1.745302  
      66A      1.770808    67A      1.801084    68A      1.858636  
      69A      1.862047    70A      1.961153    71A      1.997019  
      72A      2.024325    73A      2.071190    74A      2.140560  
      75A      2.162034    76A      2.245141    77A      2.264870  
      78A      2.367768    79A      2.395095    80A      2.440277  
      81A      2.471250    82A      2.543326    83A      2.599006  
      84A      2.678539    85A      2.814655    86A      2.964422  
      87A      2.994327    88A      3.053971    89A      3.103717  
      90A      3.235669    91A      3.672880  

    Final Occupation by Irrep:
              A 
    DOCC [    17 ]

  Energy converged.

  @DF-RKS Final Energy:  -210.39191191986450

   => Energetics <=

    Nuclear Repulsion Energy =            130.6759115682098411
    One-Electron Energy =                -544.2567087064727502
    Two-Electron Energy =                 226.6806189120754880
    DFT Exchange-Correlation Energy =     -23.4866490936770376
    Empirical Dispersion Energy =          -0.0050846000000000
    PCM Polarization Energy =               0.0000000000000000
    EFP Energy =                            0.0000000000000000
    Total Energy =                       -210.3919119198644978



Properties will be evaluated at   0.000000,   0.000000,   0.000000 Bohr

Properties computed using the SCF density matrix

  Nuclear Dipole Moment: (a.u.)
     X:   177.0015      Y:   -33.9641      Z:   -33.0163

  Electronic Dipole Moment: (a.u.)
     X:  -176.8209      Y:    33.6555      Z:    32.9476

  Dipole Moment: (a.u.)
     X:     0.1806      Y:    -0.3086      Z:    -0.0687     Total:     0.3641

  Dipole Moment: (Debye)
     X:     0.4591      Y:    -0.7845      Z:    -0.1746     Total:     0.9256


*** tstop() called on computer06 at Tue Dec 12 11:19:55 2017
Module time:
	user time   =      22.50 seconds =       0.38 minutes
	system time =       0.29 seconds =       0.00 minutes
	total time  =         23 seconds =       0.38 minutes
Total time:
	user time   =      22.50 seconds =       0.38 minutes
	system time =       0.29 seconds =       0.00 minutes
	total time  =         23 seconds =       0.38 minutes


Properties will be evaluated at   0.000000,   0.000000,   0.000000 Bohr

Properties computed using the  density matrix

  Nuclear Dipole Moment: (a.u.)
     X:   177.0015      Y:   -33.9641      Z:   -33.0163

  Electronic Dipole Moment: (a.u.)
     X:  -176.8209      Y:    33.6555      Z:    32.9476

  Dipole Moment: (a.u.)
     X:     0.1806      Y:    -0.3086      Z:    -0.0687     Total:     0.3641

  Dipole Moment: (Debye)
     X:     0.4591      Y:    -0.7845      Z:    -0.1746     Total:     0.9256

  Quadrupole Moment: (Debye Ang)
    XX:   -25.3263     YY:   -23.9837     ZZ:   -22.2918
    XY:     0.5612     XZ:    -5.9387     YZ:     0.4444

  Traceless Quadrupole Moment: (Debye Ang)
    XX:    -1.4590     YY:    -0.1165     ZZ:     1.5755
    XY:     0.5612     XZ:    -5.9387     YZ:     0.4444

  Mulliken Charges: (a.u.)
   Center  Symbol    Alpha    Beta     Spin     Total
       1     O     4.13931  4.13931  0.00000 -0.27863
       2     C     2.92711  2.92711  0.00000  0.14579
       3     C     2.98710  2.98710  0.00000  0.02580
       4     N     3.59448  3.59448  0.00000 -0.18897
       5     H     0.43023  0.43023  0.00000  0.13953
       6     H     0.49736  0.49736  0.00000  0.00529
       7     H     0.49410  0.49410  0.00000  0.01181
       8     H     0.50129  0.50129  0.00000 -0.00258
       9     H     0.49942  0.49942  0.00000  0.00117
      10     H     0.46526  0.46526  0.00000  0.06948
      11     H     0.46435  0.46435  0.00000  0.07131

   Total alpha = 17.00000, Total beta = 17.00000, Total charge = -0.00000


*** Psi4 exiting successfully. Buy a developer a beer!
