    -----------------------------------------------------------------------
          Psi4: An Open-Source Ab Initio Electronic Structure Package
                              Psi4 (no tag) Driver

                          Git: Rev {detached?}  

    J. M. Turney, A. C. Simmonett, R. M. Parrish, E. G. Hohenstein,
    F. A. Evangelista, J. T. Fermann, B. J. Mintz, L. A. Burns, J. J. Wilke,
    M. L. Abrams, N. J. Russ, M. L. Leininger, C. L. Janssen, E. T. Seidl,
    W. D. Allen, H. F. Schaefer, R. A. King, E. F. Valeev, C. D. Sherrill,
    and T. D. Crawford, WIREs Comput. Mol. Sci. 2, 556-565 (2012)
    (doi: 10.1002/wcms.93)

                         Additional Contributions by
    A. E. DePrince, M. Saitow, U. Bozkaya, A. Yu. Sokolov
    -----------------------------------------------------------------------


    Psi4 started on: Tue Jul  5 16:44:57 2016

    Process ID:  24720
    PSI4DATADIR: /export131/home/mjharvey/miniconda3/share
    Memory level set to 256.000 MB

  ==> Input File <==

--------------------------------------------------------------------------
set {
	reference rhf
	basis 6-31G*
}


set_num_threads( 1 )
memory 2 gb

molecule MOL {
0 1

H	 -3.892951	 0.981613	 -0.358725
C	 -3.196921	 0.361773	 0.172313
C	 -2.076860	 -0.007332	 -0.404944
H	 -3.439953	 0.057760	 1.173024
O	 -1.180634	 -0.819263	 0.215062
H	 -1.811520	 0.292194	 -1.403480
C	 0.051604	 -1.018856	 -0.387932
C	 1.043764	 0.054862	 -0.001873
H	 -0.017620	 -1.041351	 -1.469781
H	 0.437898	 -1.966374	 -0.042284
F	 1.785893	 -0.373540	 1.008830
F	 1.858625	 0.352099	 -1.000613
F	 0.447745	 1.167126	 0.374983

	symmetry c1
}
set optking {
	frozen_dihedral = ("
		3 5 7 9,
		6 3 2 1,
		6 3 5 7
	")
}

ee = energy('scf')
oeprop('DIPOLE', 'QUADRUPOLE', 'MULLIKEN_CHARGES')
f=open( 'psi4out.xyz', 'w' )
f.write( "13  " )
f.write( str(ee) + "\n" )
f.write( MOL.save_string_xyz() )
f.close()
--------------------------------------------------------------------------

  Memory set to   2.000 GiB by Python script.

*** tstart() called on cx1-3-14-4.cx1.hpc.ic.ac.uk
*** at Tue Jul  5 16:44:57 2016


         ---------------------------------------------------------
                                   SCF
            by Justin Turney, Rob Parrish, and Andy Simmonett
                              RHF Reference
                        1 Threads,   2000 MiB Core
         ---------------------------------------------------------

  ==> Geometry <==

    Molecular point group: c1
    Full point group: C1

    Geometry (in Angstrom), charge = 0, multiplicity = 1:

       Center              X                  Y                   Z               Mass       
    ------------   -----------------  -----------------  -----------------  -----------------
           H         -3.892387272319     0.984324800077    -0.367716294727     1.007825032070
           C         -3.196357272319     0.364484800077     0.163321705273    12.000000000000
           C         -2.076296272319    -0.004620199923    -0.413935294727    12.000000000000
           H         -3.439389272319     0.060471800077     1.164032705273     1.007825032070
           O         -1.180070272319    -0.816551199923     0.206070705273    15.994914619560
           H         -1.810956272319     0.294905800077    -1.412471294727     1.007825032070
           C          0.052167727681    -1.016144199923    -0.396923294727    12.000000000000
           C          1.044327727681     0.057573800077    -0.010864294727    12.000000000000
           H         -0.017056272319    -1.038639199923    -1.478772294727     1.007825032070
           H          0.438461727681    -1.963662199923    -0.051275294727     1.007825032070
           F          1.786456727681    -0.370828199923     0.999838705273    18.998403224000
           F          1.859188727681     0.354810800077    -1.009604294727    18.998403224000
           F          0.448308727681     1.169837800077     0.365991705273    18.998403224000

  Running in c1 symmetry.

  Rotational constants: A =      0.14895  B =      0.03996  C =      0.03897 [cm^-1]
  Rotational constants: A =   4465.28349  B =   1197.95021  C =   1168.15234 [MHz]
  Nuclear repulsion =  414.047772865469028

  Charge       = 0
  Multiplicity = 1
  Electrons    = 64
  Nalpha       = 32
  Nbeta        = 32

  ==> Algorithm <==

  SCF Algorithm Type is DF.
  DIIS enabled.
  MOM disabled.
  Fractional occupation disabled.
  Guess Type is CORE.
  Energy threshold   = 1.00e-06
  Density threshold  = 1.00e-06
  Integral threshold = 0.00e+00

  ==> Primary Basis <==

  Basis Set: 6-31G*
    Number of shells: 58
    Number of basis function: 130
    Number of Cartesian functions: 130
    Spherical Harmonics?: false
    Max angular momentum: 2

  ==> Pre-Iterations <==

   -------------------------------------------------------
    Irrep   Nso     Nmo     Nalpha   Nbeta   Ndocc  Nsocc
   -------------------------------------------------------
     A        130     130       0       0       0       0
   -------------------------------------------------------
    Total     130     130      32      32      32       0
   -------------------------------------------------------

 OEINTS: Overlap, kinetic, potential, dipole, and quadrupole integrals
         stored in file 35.

  ==> Integral Setup <==

  ==> DFJK: Density-Fitted J/K Matrices <==

    J tasked:                  Yes
    K tasked:                  Yes
    wK tasked:                  No
    OpenMP threads:              1
    Integrals threads:           1
    Memory (MB):              1430
    Algorithm:                Core
    Integral Cache:           NONE
    Schwarz Cutoff:          1E-12
    Fitting Condition:       1E-12

   => Auxiliary Basis Set <=

  Basis Set: 
    Number of shells: 237
    Number of basis function: 773
    Number of Cartesian functions: 773
    Spherical Harmonics?: false
    Max angular momentum: 3

  Minimum eigenvalue in the overlap matrix is 1.7407737839E-03.
  Using Symmetric Orthogonalization.
  SCF Guess: Core (One-Electron) Hamiltonian.

  ==> Iterations <==

                           Total Energy        Delta E     RMS |[F,P]|

   @DF-RHF iter   1:  -440.65783121154868   -4.40658e+02   7.39038e-02 
   @DF-RHF iter   2:  -175.92839827276407    2.64729e+02   9.72712e-02 DIIS
   @DF-RHF iter   3:  -490.83407728917007   -3.14906e+02   3.95271e-02 DIIS
   @DF-RHF iter   4:  -421.81809752692595    6.90160e+01   6.71745e-02 DIIS
   @DF-RHF iter   5:  -523.94520117640548   -1.02127e+02   1.57817e-02 DIIS
   @DF-RHF iter   6:  -527.11108867444364   -3.16589e+00   7.80600e-03 DIIS
   @DF-RHF iter   7:  -527.50552591541179   -3.94437e-01   1.57878e-03 DIIS
   @DF-RHF iter   8:  -527.52391750956178   -1.83916e-02   7.54961e-04 DIIS
   @DF-RHF iter   9:  -527.52893873851303   -5.02123e-03   3.60215e-04 DIIS
   @DF-RHF iter  10:  -527.53001320496662   -1.07447e-03   1.90080e-04 DIIS
   @DF-RHF iter  11:  -527.53041819220891   -4.04987e-04   3.77139e-05 DIIS
   @DF-RHF iter  12:  -527.53043855821772   -2.03660e-05   1.35063e-05 DIIS
   @DF-RHF iter  13:  -527.53044202887133   -3.47065e-06   5.69965e-06 DIIS
   @DF-RHF iter  14:  -527.53044253806570   -5.09194e-07   1.46076e-06 DIIS
   @DF-RHF iter  15:  -527.53044258833222   -5.02665e-08   6.15462e-07 DIIS

  ==> Post-Iterations <==

    Orbital Energies (a.u.)
    -----------------------

    Doubly Occupied:                                                      

       1A    -26.345577     2A    -26.342793     3A    -26.338012  
       4A    -20.606854     5A    -11.502719     6A    -11.316920  
       7A    -11.299339     8A    -11.215467     9A     -1.741499  
      10A     -1.640622    11A     -1.636657    12A     -1.436836  
      13A     -1.083793    14A     -1.016064    15A     -0.924549  
      16A     -0.837155    17A     -0.829830    18A     -0.820552  
      19A     -0.791243    20A     -0.723396    21A     -0.715584  
      22A     -0.694510    23A     -0.674300    24A     -0.661796  
      25A     -0.653836    26A     -0.642296    27A     -0.627126  
      28A     -0.582046    29A     -0.561837    30A     -0.525377  
      31A     -0.512918    32A     -0.351142  

    Virtual:                                                              

      33A      0.190177    34A      0.229384    35A      0.270002  
      36A      0.279128    37A      0.293932    38A      0.311197  
      39A      0.343234    40A      0.411799    41A      0.426209  
      42A      0.453157    43A      0.477588    44A      0.509009  
      45A      0.537816    46A      0.691549    47A      0.698890  
      48A      0.721331    49A      0.739737    50A      0.758090  
      51A      0.771514    52A      0.812207    53A      0.822769  
      54A      0.879688    55A      0.907337    56A      0.923443  
      57A      0.984201    58A      1.075194    59A      1.097930  
      60A      1.133297    61A      1.145079    62A      1.154306  
      63A      1.203802    64A      1.232070    65A      1.249108  
      66A      1.323041    67A      1.352043    68A      1.369684  
      69A      1.411065    70A      1.433582    71A      1.449802  
      72A      1.474187    73A      1.582921    74A      1.613406  
      75A      1.632998    76A      1.650898    77A      1.668352  
      78A      1.673176    79A      1.683234    80A      1.736541  
      81A      1.748997    82A      1.804162    83A      1.862721  
      84A      1.911503    85A      1.948258    86A      1.976545  
      87A      2.022909    88A      2.050003    89A      2.116251  
      90A      2.133910    91A      2.142183    92A      2.146369  
      93A      2.242609    94A      2.250584    95A      2.264943  
      96A      2.295513    97A      2.313351    98A      2.327564  
      99A      2.352815   100A      2.402479   101A      2.413446  
     102A      2.418408   103A      2.465486   104A      2.508090  
     105A      2.552248   106A      2.580656   107A      2.665047  
     108A      2.693696   109A      2.722120   110A      2.809147  
     111A      2.890484   112A      2.929799   113A      2.996207  
     114A      3.087024   115A      3.135079   116A      3.175934  
     117A      3.201357   118A      3.294274   119A      3.413836  
     120A      3.425944   121A      3.447765   122A      3.478024  
     123A      4.342030   124A      4.539665   125A      4.602467  
     126A      4.731660   127A      4.918539   128A      4.957249  
     129A      5.041983   130A      5.843712  

    Final Occupation by Irrep:
              A 
    DOCC [    32 ]

  Energy converged.

  @DF-RHF Final Energy:  -527.53044258833222

   => Energetics <=

    Nuclear Repulsion Energy =            414.0477728654690281
    One-Electron Energy =               -1551.8511601466975662
    Two-Electron Energy =                 610.2729446928963171
    DFT Exchange-Correlation Energy =       0.0000000000000000
    Empirical Dispersion Energy =           0.0000000000000000
    PCM Polarization Energy =               0.0000000000000000
    EFP Energy =                            0.0000000000000000
    Total Energy =                       -527.5304425883321073

    Alert: EFP and PCM quantities not currently incorporated into SCF psivars.

Properties will be evaluated at   0.000000,   0.000000,   0.000000 Bohr
  ==> Properties <==


Properties computed using the SCF density matrix

  Nuclear Dipole Moment: (a.u.)
     X:   -12.0437      Y:    -2.6510      Z:    -2.3471

  Electronic Dipole Moment: (a.u.)
     X:    11.7982      Y:     2.2847      Z:     1.6305

  Dipole Moment: (a.u.)
     X:    -0.2455      Y:    -0.3663      Z:    -0.7166     Total:     0.8414

  Dipole Moment: (Debye)
     X:    -0.6240      Y:    -0.9311      Z:    -1.8214     Total:     2.1387


  Saving occupied orbitals to File 180.

*** tstop() called on cx1-3-14-4.cx1.hpc.ic.ac.uk at Tue Jul  5 16:45:08 2016
Module time:
	user time   =      10.03 seconds =       0.17 minutes
	system time =       0.06 seconds =       0.00 minutes
	total time  =         11 seconds =       0.18 minutes
Total time:
	user time   =      10.03 seconds =       0.17 minutes
	system time =       0.06 seconds =       0.00 minutes
	total time  =         11 seconds =       0.18 minutes


Properties will be evaluated at   0.000000,   0.000000,   0.000000 Bohr

Properties computed using the  density matrix

  Nuclear Dipole Moment: (a.u.)
     X:   -12.0437      Y:    -2.6510      Z:    -2.3471

  Electronic Dipole Moment: (a.u.)
     X:    11.7982      Y:     2.2847      Z:     1.6305

  Dipole Moment: (a.u.)
     X:    -0.2455      Y:    -0.3663      Z:    -0.7166     Total:     0.8414

  Dipole Moment: (Debye)
     X:    -0.6240      Y:    -0.9311      Z:    -1.8214     Total:     2.1387

  Quadrupole Moment: (Debye Ang)
    XX:   -45.9314     YY:   -44.3048     ZZ:   -43.4448
    XY:    -3.2120     XZ:     0.8590     YZ:     0.5681

  Traceless Quadrupole Moment: (Debye Ang)
    XX:    -1.3711     YY:     0.2555     ZZ:     1.1156
    XY:    -3.2120     XZ:     0.8590     YZ:     0.5681

  Mulliken Charges: (a.u.)
   Center  Symbol    Alpha    Beta     Spin     Total
       1     H     0.40735  0.40735  0.00000  0.18530
       2     C     3.23574  3.23574  0.00000 -0.47148
       3     C     2.89346  2.89346  0.00000  0.21308
       4     H     0.40182  0.40182  0.00000  0.19637
       5     O     4.30009  4.30009  0.00000 -0.60019
       6     H     0.40859  0.40859  0.00000  0.18282
       7     C     3.08097  3.08097  0.00000 -0.16193
       8     C     2.44309  2.44309  0.00000  1.11381
       9     H     0.40412  0.40412  0.00000  0.19176
      10     H     0.38543  0.38543  0.00000  0.22914
      11     F     4.68252  4.68252  0.00000 -0.36504
      12     F     4.68255  4.68255  0.00000 -0.36510
      13     F     4.67427  4.67427  0.00000 -0.34854

   Total alpha = 32.00000, Total beta = 32.00000, Total charge =  0.00000


*** PSI4 exiting successfully. Buy a developer a beer!
