    -----------------------------------------------------------------------
          Psi4: An Open-Source Ab Initio Electronic Structure Package
                              Psi4 (no tag) Driver

                          Git: Rev {detached?}  

    J. M. Turney, A. C. Simmonett, R. M. Parrish, E. G. Hohenstein,
    F. A. Evangelista, J. T. Fermann, B. J. Mintz, L. A. Burns, J. J. Wilke,
    M. L. Abrams, N. J. Russ, M. L. Leininger, C. L. Janssen, E. T. Seidl,
    W. D. Allen, H. F. Schaefer, R. A. King, E. F. Valeev, C. D. Sherrill,
    and T. D. Crawford, WIREs Comput. Mol. Sci. 2, 556-565 (2012)
    (doi: 10.1002/wcms.93)

                         Additional Contributions by
    A. E. DePrince, M. Saitow, U. Bozkaya, A. Yu. Sokolov
    -----------------------------------------------------------------------


    Psi4 started on: Tue Jul  5 16:35:52 2016

    Process ID:  26398
    PSI4DATADIR: /export131/home/mjharvey/miniconda3/share
    Memory level set to 256.000 MB

  ==> Input File <==

--------------------------------------------------------------------------
set {
	reference rhf
	basis 6-31G*
}


set_num_threads( 1 )
memory 2 gb

molecule MOL {
0 1

H	 -2.420451	 0.282915	 2.186750
C	 -2.267793	 -0.494873	 1.441174
O	 -0.992736	 -0.427252	 0.888913
H	 -2.366030	 -1.460546	 1.917585
H	 -3.040150	 -0.398689	 0.679176
C	 -0.719715	 0.768384	 0.229244
C	 0.719720	 0.768376	 -0.229267
H	 -1.372099	 0.879348	 -0.637808
H	 -0.886831	 1.619727	 0.885972
O	 1.392611	 -0.295398	 0.366430
H	 0.750534	 0.687200	 -1.313918
H	 1.185043	 1.714359	 0.050526
C	 2.706965	 -0.449871	 -0.062409
H	 2.756559	 -0.644779	 -1.131878
H	 3.305899	 0.433456	 0.155466
H	 3.125548	 -1.294566	 0.467107

	symmetry c1
}
set optking {
	frozen_dihedral = ("
		7 10 13 14,
		2 3 6 7
	")
}

ee = energy('scf')
oeprop('DIPOLE', 'QUADRUPOLE', 'MULLIKEN_CHARGES')
f=open( 'psi4out.xyz', 'w' )
f.write( "16  " )
f.write( str(ee) + "\n" )
f.write( MOL.save_string_xyz() )
f.close()
--------------------------------------------------------------------------

  Memory set to   2.000 GiB by Python script.

*** tstart() called on cx1-3-2-2.cx1.hpc.ic.ac.uk
*** at Tue Jul  5 16:35:52 2016


         ---------------------------------------------------------
                                   SCF
            by Justin Turney, Rob Parrish, and Andy Simmonett
                              RHF Reference
                        1 Threads,   2000 MiB Core
         ---------------------------------------------------------

  ==> Geometry <==

    Molecular point group: c1
    Full point group: C1

    Geometry (in Angstrom), charge = 0, multiplicity = 1:

       Center              X                  Y                   Z               Mass       
    ------------   -----------------  -----------------  -----------------  -----------------
           H         -2.561591291889     0.312024966913     1.743657531440     1.007825032070
           C         -2.408933291889    -0.465763033087     0.998081531440    12.000000000000
           O         -1.133876291889    -0.398142033087     0.445820531440    15.994914619560
           H         -2.507170291889    -1.431436033087     1.474492531440     1.007825032070
           H         -3.181290291889    -0.369579033087     0.236083531440     1.007825032070
           C         -0.860855291889     0.797493966913    -0.213848468560    12.000000000000
           C          0.578579708111     0.797485966913    -0.672359468560    12.000000000000
           H         -1.513239291889     0.908457966913    -1.080900468560     1.007825032070
           H         -1.027971291889     1.648836966913     0.442879531440     1.007825032070
           O          1.251470708111    -0.266288033087    -0.076662468560    15.994914619560
           H          0.609393708111     0.716309966913    -1.757010468560     1.007825032070
           H          1.043902708111     1.743468966913    -0.392566468560     1.007825032070
           C          2.565824708111    -0.420761033087    -0.505501468560    12.000000000000
           H          2.615418708111    -0.615669033087    -1.574970468560     1.007825032070
           H          3.164758708111     0.462565966913    -0.287626468560     1.007825032070
           H          2.984407708111    -1.265456033087     0.024014531440     1.007825032070

  Running in c1 symmetry.

  Rotational constants: A =      0.32665  B =      0.05848  C =      0.05161 [cm^-1]
  Rotational constants: A =   9792.60279  B =   1753.32851  C =   1547.15099 [MHz]
  Nuclear repulsion =  261.951273741155660

  Charge       = 0
  Multiplicity = 1
  Electrons    = 50
  Nalpha       = 25
  Nbeta        = 25

  ==> Algorithm <==

  SCF Algorithm Type is DF.
  DIIS enabled.
  MOM disabled.
  Fractional occupation disabled.
  Guess Type is CORE.
  Energy threshold   = 1.00e-06
  Density threshold  = 1.00e-06
  Integral threshold = 0.00e+00

  ==> Primary Basis <==

  Basis Set: 6-31G*
    Number of shells: 56
    Number of basis function: 110
    Number of Cartesian functions: 110
    Spherical Harmonics?: false
    Max angular momentum: 2

  ==> Pre-Iterations <==

   -------------------------------------------------------
    Irrep   Nso     Nmo     Nalpha   Nbeta   Ndocc  Nsocc
   -------------------------------------------------------
     A        110     110       0       0       0       0
   -------------------------------------------------------
    Total     110     110      25      25      25       0
   -------------------------------------------------------

 OEINTS: Overlap, kinetic, potential, dipole, and quadrupole integrals
         stored in file 35.

  ==> Integral Setup <==

  ==> DFJK: Density-Fitted J/K Matrices <==

    J tasked:                  Yes
    K tasked:                  Yes
    wK tasked:                  No
    OpenMP threads:              1
    Integrals threads:           1
    Memory (MB):              1430
    Algorithm:                Core
    Integral Cache:           NONE
    Schwarz Cutoff:          1E-12
    Fitting Condition:       1E-12

   => Auxiliary Basis Set <=

  Basis Set: 
    Number of shells: 234
    Number of basis function: 736
    Number of Cartesian functions: 736
    Spherical Harmonics?: false
    Max angular momentum: 3

  Minimum eigenvalue in the overlap matrix is 3.3539827857E-03.
  Using Symmetric Orthogonalization.
  SCF Guess: Core (One-Electron) Hamiltonian.

  ==> Iterations <==

                           Total Energy        Delta E     RMS |[F,P]|

   @DF-RHF iter   1:  -240.30019099506239   -2.40300e+02   7.80208e-02 
   @DF-RHF iter   2:  -212.92034367076587    2.73798e+01   6.20837e-02 DIIS
   @DF-RHF iter   3:  -269.85884867649145   -5.69385e+01   5.16124e-02 DIIS
   @DF-RHF iter   4:  -305.20719299467783   -3.53483e+01   1.80074e-02 DIIS
   @DF-RHF iter   5:  -306.64757418542808   -1.44038e+00   7.63284e-03 DIIS
   @DF-RHF iter   6:  -306.94862982861366   -3.01056e-01   1.32253e-03 DIIS
   @DF-RHF iter   7:  -306.96193924767624   -1.33094e-02   3.09862e-04 DIIS
   @DF-RHF iter   8:  -306.96279836676456   -8.59119e-04   1.21833e-04 DIIS
   @DF-RHF iter   9:  -306.96290559880970   -1.07232e-04   5.24601e-05 DIIS
   @DF-RHF iter  10:  -306.96292650186513   -2.09031e-05   1.85660e-05 DIIS
   @DF-RHF iter  11:  -306.96292914430103   -2.64244e-06   1.94675e-06 DIIS
   @DF-RHF iter  12:  -306.96292918838560   -4.40846e-08   4.98556e-07 DIIS

  ==> Post-Iterations <==

    Orbital Energies (a.u.)
    -----------------------

    Doubly Occupied:                                                      

       1A    -20.548983     2A    -20.548948     3A    -11.268598  
       4A    -11.267956     5A    -11.260542     6A    -11.260538  
       7A     -1.388279     8A     -1.362167     9A     -1.030034  
      10A     -0.930305    11A     -0.897637    12A     -0.815044  
      13A     -0.688898    14A     -0.675418    15A     -0.656475  
      16A     -0.640585    17A     -0.613943    18A     -0.586111  
      19A     -0.574363    20A     -0.516561    21A     -0.507687  
      22A     -0.471546    23A     -0.460914    24A     -0.422595  
      25A     -0.396599  

    Virtual:                                                              

      26A      0.224002    27A      0.252317    28A      0.282601  
      29A      0.283964    30A      0.299276    31A      0.322106  
      32A      0.330506    33A      0.334745    34A      0.339766  
      35A      0.348697    36A      0.375829    37A      0.403230  
      38A      0.419340    39A      0.458390    40A      0.529748  
      41A      0.710565    42A      0.765005    43A      0.779366  
      44A      0.780428    45A      0.785148    46A      0.791998  
      47A      0.802335    48A      0.832208    49A      0.914824  
      50A      0.949909    51A      1.023061    52A      1.023966  
      53A      1.058296    54A      1.091382    55A      1.123296  
      56A      1.136344    57A      1.149985    58A      1.153021  
      59A      1.162755    60A      1.171051    61A      1.204324  
      62A      1.223153    63A      1.246930    64A      1.250275  
      65A      1.285522    66A      1.316580    67A      1.331804  
      68A      1.471631    69A      1.506662    70A      1.617546  
      71A      1.644561    72A      1.653516    73A      1.667858  
      74A      1.761330    75A      1.794249    76A      1.870076  
      77A      1.901164    78A      1.953892    79A      2.116212  
      80A      2.132400    81A      2.187650    82A      2.226371  
      83A      2.351888    84A      2.368107    85A      2.368119  
      86A      2.451785    87A      2.462334    88A      2.469534  
      89A      2.491738    90A      2.507766    91A      2.553379  
      92A      2.620201    93A      2.625156    94A      2.668701  
      95A      2.731388    96A      2.810343    97A      2.833986  
      98A      2.852377    99A      2.958574   100A      3.056607  
     101A      3.101293   102A      3.291000   103A      3.323581  
     104A      3.384068   105A      4.311475   106A      4.553359  
     107A      4.617515   108A      4.688468   109A      4.700138  
     110A      4.928452  

    Final Occupation by Irrep:
              A 
    DOCC [    25 ]

  Energy converged.

  @DF-RHF Final Energy:  -306.96292918838560

   => Energetics <=

    Nuclear Repulsion Energy =            261.9512737411556600
    One-Electron Energy =                -938.2468846280610251
    Two-Electron Energy =                 369.3326816985202186
    DFT Exchange-Correlation Energy =       0.0000000000000000
    Empirical Dispersion Energy =           0.0000000000000000
    PCM Polarization Energy =               0.0000000000000000
    EFP Energy =                            0.0000000000000000
    Total Energy =                       -306.9629291883851465

    Alert: EFP and PCM quantities not currently incorporated into SCF psivars.

Properties will be evaluated at   0.000000,   0.000000,   0.000000 Bohr
  ==> Properties <==


Properties computed using the SCF density matrix

  Nuclear Dipole Moment: (a.u.)
     X:    -0.3495      Y:     1.9744      Z:    -1.0969

  Electronic Dipole Moment: (a.u.)
     X:     0.2316      Y:    -1.3088      Z:     0.7270

  Dipole Moment: (a.u.)
     X:    -0.1178      Y:     0.6657      Z:    -0.3698     Total:     0.7706

  Dipole Moment: (Debye)
     X:    -0.2995      Y:     1.6920      Z:    -0.9401     Total:     1.9586


  Saving occupied orbitals to File 180.

*** tstop() called on cx1-3-2-2.cx1.hpc.ic.ac.uk at Tue Jul  5 16:35:59 2016
Module time:
	user time   =       6.34 seconds =       0.11 minutes
	system time =       0.03 seconds =       0.00 minutes
	total time  =          7 seconds =       0.12 minutes
Total time:
	user time   =       6.34 seconds =       0.11 minutes
	system time =       0.03 seconds =       0.00 minutes
	total time  =          7 seconds =       0.12 minutes


Properties will be evaluated at   0.000000,   0.000000,   0.000000 Bohr

Properties computed using the  density matrix

  Nuclear Dipole Moment: (a.u.)
     X:    -0.3495      Y:     1.9744      Z:    -1.0969

  Electronic Dipole Moment: (a.u.)
     X:     0.2316      Y:    -1.3088      Z:     0.7270

  Dipole Moment: (a.u.)
     X:    -0.1178      Y:     0.6657      Z:    -0.3698     Total:     0.7706

  Dipole Moment: (Debye)
     X:    -0.2995      Y:     1.6920      Z:    -0.9401     Total:     1.9586

  Quadrupole Moment: (Debye Ang)
    XX:   -31.3282     YY:   -37.3606     ZZ:   -37.2207
    XY:    -0.3445     XZ:    -2.4235     YZ:    -0.5570

  Traceless Quadrupole Moment: (Debye Ang)
    XX:     3.9749     YY:    -2.0574     ZZ:    -1.9175
    XY:    -0.3445     XZ:    -2.4235     YZ:    -0.5570

  Mulliken Charges: (a.u.)
   Center  Symbol    Alpha    Beta     Spin     Total
       1     H     0.43119  0.43119  0.00000  0.13763
       2     C     3.07853  3.07853  0.00000 -0.15706
       3     O     4.29172  4.29172  0.00000 -0.58343
       4     H     0.41094  0.41094  0.00000  0.17811
       5     H     0.43286  0.43286  0.00000  0.13429
       6     C     2.99485  2.99485  0.00000  0.01031
       7     C     2.99484  2.99484  0.00000  0.01032
       8     H     0.43006  0.43006  0.00000  0.13987
       9     H     0.42986  0.42986  0.00000  0.14028
      10     O     4.29172  4.29172  0.00000 -0.58344
      11     H     0.42986  0.42986  0.00000  0.14028
      12     H     0.43006  0.43006  0.00000  0.13987
      13     C     3.07853  3.07853  0.00000 -0.15705
      14     H     0.43119  0.43119  0.00000  0.13762
      15     H     0.43286  0.43286  0.00000  0.13428
      16     H     0.41094  0.41094  0.00000  0.17812

   Total alpha = 25.00000, Total beta = 25.00000, Total charge =  0.00000


*** PSI4 exiting successfully. Buy a developer a beer!
