    -----------------------------------------------------------------------
          Psi4: An Open-Source Ab Initio Electronic Structure Package
                              Psi4 (no tag) Driver

                          Git: Rev {detached?}  

    J. M. Turney, A. C. Simmonett, R. M. Parrish, E. G. Hohenstein,
    F. A. Evangelista, J. T. Fermann, B. J. Mintz, L. A. Burns, J. J. Wilke,
    M. L. Abrams, N. J. Russ, M. L. Leininger, C. L. Janssen, E. T. Seidl,
    W. D. Allen, H. F. Schaefer, R. A. King, E. F. Valeev, C. D. Sherrill,
    and T. D. Crawford, WIREs Comput. Mol. Sci. 2, 556-565 (2012)
    (doi: 10.1002/wcms.93)

                         Additional Contributions by
    A. E. DePrince, M. Saitow, U. Bozkaya, A. Yu. Sokolov
    -----------------------------------------------------------------------


    Psi4 started on: Tue Jul  5 16:35:05 2016

    Process ID:   6488
    PSI4DATADIR: /export131/home/mjharvey/miniconda3/share
    Memory level set to 256.000 MB

  ==> Input File <==

--------------------------------------------------------------------------
set {
	reference rhf
	basis 6-31G*
}


set_num_threads( 1 )
memory 2 gb

molecule MOL {
0 1

H	 -1.836216	 1.387520	 -0.000064
C	 -1.301823	 0.443321	 -0.000031
O	 -0.003969	 0.658512	 0.000451
O	 -1.829879	 -0.616434	 -0.000857
C	 0.643524	 0.766635	 -1.266928
C	 0.611485	 -0.602311	 -1.911350
H	 1.655694	 1.114544	 -1.112690
H	 0.123265	 1.503800	 -1.862925
H	 1.130183	 -1.329180	 -1.296820
H	 1.096260	 -0.563908	 -2.881273
H	 -0.409613	 -0.938189	 -2.050755

	symmetry c1
}
set optking {
	frozen_dihedral = ("
		7 5 3 2
	")
}

ee = energy('scf')
oeprop('DIPOLE', 'QUADRUPOLE', 'MULLIKEN_CHARGES')
f=open( 'psi4out.xyz', 'w' )
f.write( "11  " )
f.write( str(ee) + "\n" )
f.write( MOL.save_string_xyz() )
f.close()
--------------------------------------------------------------------------

  Memory set to   2.000 GiB by Python script.

*** tstart() called on cx1-3-6-1.cx1.hpc.ic.ac.uk
*** at Tue Jul  5 16:35:06 2016


         ---------------------------------------------------------
                                   SCF
            by Justin Turney, Rob Parrish, and Andy Simmonett
                              RHF Reference
                        1 Threads,   2000 MiB Core
         ---------------------------------------------------------

  ==> Geometry <==

    Molecular point group: c1
    Full point group: C1

    Geometry (in Angstrom), charge = 0, multiplicity = 1:

       Center              X                  Y                   Z               Mass       
    ------------   -----------------  -----------------  -----------------  -----------------
           H         -1.456395744635     1.263952331761     0.640465680227     1.007825032070
           C         -0.922002744635     0.319753331761     0.640498680227    12.000000000000
           O          0.375851255365     0.534944331761     0.640980680227    15.994914619560
           O         -1.450058744635    -0.740001668239     0.639672680227    15.994914619560
           C          1.023344255365     0.643067331761    -0.626398319773    12.000000000000
           C          0.991305255365    -0.725878668239    -1.270820319773    12.000000000000
           H          2.035514255365     0.990976331761    -0.472160319773     1.007825032070
           H          0.503085255365     1.380232331761    -1.222395319773     1.007825032070
           H          1.510003255365    -1.452747668239    -0.656290319773     1.007825032070
           H          1.476080255365    -0.687475668239    -2.240743319773     1.007825032070
           H         -0.029792744635    -1.061756668239    -1.410225319773     1.007825032070

  Running in c1 symmetry.

  Rotational constants: A =      0.33449  B =      0.13549  C =      0.10538 [cm^-1]
  Rotational constants: A =  10027.86639  B =   4062.01936  C =   3159.17614 [MHz]
  Nuclear repulsion =  182.567170911954179

  Charge       = 0
  Multiplicity = 1
  Electrons    = 40
  Nalpha       = 20
  Nbeta        = 20

  ==> Algorithm <==

  SCF Algorithm Type is DF.
  DIIS enabled.
  MOM disabled.
  Fractional occupation disabled.
  Guess Type is CORE.
  Energy threshold   = 1.00e-06
  Density threshold  = 1.00e-06
  Integral threshold = 0.00e+00

  ==> Primary Basis <==

  Basis Set: 6-31G*
    Number of shells: 42
    Number of basis function: 87
    Number of Cartesian functions: 87
    Spherical Harmonics?: false
    Max angular momentum: 2

  ==> Pre-Iterations <==

   -------------------------------------------------------
    Irrep   Nso     Nmo     Nalpha   Nbeta   Ndocc  Nsocc
   -------------------------------------------------------
     A         87      87       0       0       0       0
   -------------------------------------------------------
    Total      87      87      20      20      20       0
   -------------------------------------------------------

 OEINTS: Overlap, kinetic, potential, dipole, and quadrupole integrals
         stored in file 35.

  ==> Integral Setup <==

  ==> DFJK: Density-Fitted J/K Matrices <==

    J tasked:                  Yes
    K tasked:                  Yes
    wK tasked:                  No
    OpenMP threads:              1
    Integrals threads:           1
    Memory (MB):              1430
    Algorithm:                Core
    Integral Cache:           NONE
    Schwarz Cutoff:          1E-12
    Fitting Condition:       1E-12

   => Auxiliary Basis Set <=

  Basis Set: 
    Number of shells: 174
    Number of basis function: 555
    Number of Cartesian functions: 555
    Spherical Harmonics?: false
    Max angular momentum: 3

  Minimum eigenvalue in the overlap matrix is 5.0773736928E-03.
  Using Symmetric Orthogonalization.
  SCF Guess: Core (One-Electron) Hamiltonian.

  ==> Iterations <==

                           Total Energy        Delta E     RMS |[F,P]|

   @DF-RHF iter   1:  -217.49608061090282   -2.17496e+02   8.32254e-02 
   @DF-RHF iter   2:  -166.91058018381585    5.05855e+01   8.39916e-02 DIIS
   @DF-RHF iter   3:  -243.80483146639000   -7.68943e+01   4.14080e-02 DIIS
   @DF-RHF iter   4:  -235.51086145291674    8.29397e+00   6.60264e-02 DIIS
   @DF-RHF iter   5:  -263.70978307719048   -2.81989e+01   2.34849e-02 DIIS
   @DF-RHF iter   6:  -266.13111445981730   -2.42133e+00   1.33665e-02 DIIS
   @DF-RHF iter   7:  -266.71861748012441   -5.87503e-01   4.36441e-03 DIIS
   @DF-RHF iter   8:  -266.79094798403412   -7.23305e-02   1.54753e-03 DIIS
   @DF-RHF iter   9:  -266.80133086834900   -1.03829e-02   7.67801e-04 DIIS
   @DF-RHF iter  10:  -266.80391478428874   -2.58392e-03   2.96527e-04 DIIS
   @DF-RHF iter  11:  -266.80432187954233   -4.07095e-04   8.67655e-05 DIIS
   @DF-RHF iter  12:  -266.80435390156879   -3.20220e-05   2.36551e-05 DIIS
   @DF-RHF iter  13:  -266.80435717555639   -3.27399e-06   5.96144e-06 DIIS
   @DF-RHF iter  14:  -266.80435750002567   -3.24469e-07   2.69920e-06 DIIS
   @DF-RHF iter  15:  -266.80435757233420   -7.23085e-08   8.38960e-07 DIIS

  ==> Post-Iterations <==

    Orbital Energies (a.u.)
    -----------------------

    Doubly Occupied:                                                      

       1A    -20.592544     2A    -20.569780     3A    -11.380960  
       4A    -11.305002     5A    -11.221461     6A     -1.471561  
       7A     -1.379399     8A     -1.048507     9A     -0.901792  
      10A     -0.824943    11A     -0.719965    12A     -0.688640  
      13A     -0.686941    14A     -0.612456    15A     -0.574168  
      16A     -0.549277    17A     -0.531986    18A     -0.491758  
      19A     -0.463844    20A     -0.451320  

    Virtual:                                                              

      21A      0.164539    22A      0.248439    23A      0.272866  
      24A      0.293144    25A      0.294588    26A      0.315957  
      27A      0.334948    28A      0.339939    29A      0.396803  
      30A      0.463999    31A      0.530105    32A      0.697543  
      33A      0.723173    34A      0.739415    35A      0.768656  
      36A      0.798626    37A      0.823379    38A      0.902133  
      39A      0.948532    40A      0.992885    41A      1.043748  
      42A      1.090398    43A      1.099509    44A      1.113735  
      45A      1.151243    46A      1.174676    47A      1.183175  
      48A      1.231969    49A      1.248635    50A      1.306763  
      51A      1.324094    52A      1.381287    53A      1.402989  
      54A      1.522865    55A      1.603808    56A      1.667273  
      57A      1.716329    58A      1.807349    59A      1.825871  
      60A      1.886122    61A      1.994058    62A      2.024006  
      63A      2.101544    64A      2.183888    65A      2.206930  
      66A      2.240989    67A      2.258562    68A      2.308269  
      69A      2.404792    70A      2.494989    71A      2.541900  
      72A      2.584490    73A      2.659634    74A      2.724163  
      75A      2.735271    76A      2.911849    77A      2.958791  
      78A      3.010697    79A      3.186663    80A      3.276829  
      81A      3.311111    82A      3.420883    83A      4.275853  
      84A      4.398343    85A      4.610163    86A      4.633670  
      87A      4.832538  

    Final Occupation by Irrep:
              A 
    DOCC [    20 ]

  Energy converged.

  @DF-RHF Final Energy:  -266.80435757233420

   => Energetics <=

    Nuclear Repulsion Energy =            182.5671709119541788
    One-Electron Energy =                -725.8105079320828281
    Two-Electron Energy =                 276.4389794477950204
    DFT Exchange-Correlation Energy =       0.0000000000000000
    Empirical Dispersion Energy =           0.0000000000000000
    PCM Polarization Energy =               0.0000000000000000
    EFP Energy =                            0.0000000000000000
    Total Energy =                       -266.8043575723335721

    Alert: EFP and PCM quantities not currently incorporated into SCF psivars.

Properties will be evaluated at   0.000000,   0.000000,   0.000000 Bohr
  ==> Properties <==


Properties computed using the SCF density matrix

  Nuclear Dipole Moment: (a.u.)
     X:     3.7808      Y:     0.4051      Z:    -5.0199

  Electronic Dipole Moment: (a.u.)
     X:    -3.2310      Y:     0.4971      Z:     4.3003

  Dipole Moment: (a.u.)
     X:     0.5498      Y:     0.9022      Z:    -0.7197     Total:     1.2784

  Dipole Moment: (Debye)
     X:     1.3976      Y:     2.2931      Z:    -1.8292     Total:     3.2493


  Saving occupied orbitals to File 180.

*** tstop() called on cx1-3-6-1.cx1.hpc.ic.ac.uk at Tue Jul  5 16:35:10 2016
Module time:
	user time   =       3.91 seconds =       0.07 minutes
	system time =       0.03 seconds =       0.00 minutes
	total time  =          4 seconds =       0.07 minutes
Total time:
	user time   =       3.91 seconds =       0.07 minutes
	system time =       0.03 seconds =       0.00 minutes
	total time  =          4 seconds =       0.07 minutes


Properties will be evaluated at   0.000000,   0.000000,   0.000000 Bohr

Properties computed using the  density matrix

  Nuclear Dipole Moment: (a.u.)
     X:     3.7808      Y:     0.4051      Z:    -5.0199

  Electronic Dipole Moment: (a.u.)
     X:    -3.2310      Y:     0.4971      Z:     4.3003

  Dipole Moment: (a.u.)
     X:     0.5498      Y:     0.9022      Z:    -0.7197     Total:     1.2784

  Dipole Moment: (Debye)
     X:     1.3976      Y:     2.2931      Z:    -1.8292     Total:     3.2493

  Quadrupole Moment: (Debye Ang)
    XX:   -30.7587     YY:   -30.5042     ZZ:   -29.9477
    XY:    -3.1700     XZ:    -0.9153     YZ:     0.4425

  Traceless Quadrupole Moment: (Debye Ang)
    XX:    -0.3552     YY:    -0.1007     ZZ:     0.4559
    XY:    -3.1700     XZ:    -0.9153     YZ:     0.4425

  Mulliken Charges: (a.u.)
   Center  Symbol    Alpha    Beta     Spin     Total
       1     H     0.42492  0.42492  0.00000  0.15017
       2     C     2.73207  2.73207  0.00000  0.53587
       3     O     4.29739  4.29739  0.00000 -0.59478
       4     O     4.23506  4.23506  0.00000 -0.47011
       5     C     3.01106  3.01106  0.00000 -0.02212
       6     C     3.25333  3.25333  0.00000 -0.50666
       7     H     0.40123  0.40123  0.00000  0.19755
       8     H     0.41850  0.41850  0.00000  0.16301
       9     H     0.40505  0.40505  0.00000  0.18990
      10     H     0.42033  0.42033  0.00000  0.15934
      11     H     0.40108  0.40108  0.00000  0.19784

   Total alpha = 20.00000, Total beta = 20.00000, Total charge = -0.00000


*** PSI4 exiting successfully. Buy a developer a beer!
