    -----------------------------------------------------------------------
          Psi4: An Open-Source Ab Initio Electronic Structure Package
                              Psi4 (no tag) Driver

                          Git: Rev {detached?}  

    J. M. Turney, A. C. Simmonett, R. M. Parrish, E. G. Hohenstein,
    F. A. Evangelista, J. T. Fermann, B. J. Mintz, L. A. Burns, J. J. Wilke,
    M. L. Abrams, N. J. Russ, M. L. Leininger, C. L. Janssen, E. T. Seidl,
    W. D. Allen, H. F. Schaefer, R. A. King, E. F. Valeev, C. D. Sherrill,
    and T. D. Crawford, WIREs Comput. Mol. Sci. 2, 556-565 (2012)
    (doi: 10.1002/wcms.93)

                         Additional Contributions by
    A. E. DePrince, M. Saitow, U. Bozkaya, A. Yu. Sokolov
    -----------------------------------------------------------------------


    Psi4 started on: Tue Jul  5 16:47:09 2016

    Process ID:  30871
    PSI4DATADIR: /export131/home/mjharvey/miniconda3/share
    Memory level set to 256.000 MB

  ==> Input File <==

--------------------------------------------------------------------------
set {
	reference rhf
	basis 6-31G*
}


set_num_threads( 1 )
memory 2 gb

molecule MOL {
0 1

H	 1.723202	 1.632482	 -1.968286
C	 0.995937	 1.433708	 -1.189505
C	 1.322923	 0.120767	 -0.479465
H	 1.011660	 2.271686	 -0.499636
H	 0.015082	 1.398287	 -1.653469
C	 0.306652	 -0.176050	 0.621399
H	 2.313063	 0.171746	 -0.038497
H	 1.322156	 -0.700098	 -1.186883
N	 -1.068537	 -0.011044	 0.085269
H	 0.372515	 -1.192590	 0.973735
H	 0.391664	 0.520566	 1.441230
O	 -1.949920	 0.154369	 0.870874
O	 -1.200619	 -0.087895	 -1.098231

	symmetry c1
}
set optking {
	frozen_dihedral = ("
		7 3 6 9
	")
}

ee = energy('scf')
oeprop('DIPOLE', 'QUADRUPOLE', 'MULLIKEN_CHARGES')
f=open( 'psi4out.xyz', 'w' )
f.write( "13  " )
f.write( str(ee) + "\n" )
f.write( MOL.save_string_xyz() )
f.close()
--------------------------------------------------------------------------

  Memory set to   2.000 GiB by Python script.

*** tstart() called on cx1-3-15-4.cx1.hpc.ic.ac.uk
*** at Tue Jul  5 16:47:09 2016


         ---------------------------------------------------------
                                   SCF
            by Justin Turney, Rob Parrish, and Andy Simmonett
                              RHF Reference
                        1 Threads,   2000 MiB Core
         ---------------------------------------------------------

  ==> Geometry <==

    Molecular point group: c1
    Full point group: C1

    Geometry (in Angstrom), charge = 0, multiplicity = 1:

       Center              X                  Y                   Z               Mass       
    ------------   -----------------  -----------------  -----------------  -----------------
           H          2.022412216665     1.390096412008    -1.766505027482     1.007825032070
           C          1.295147216665     1.191322412008    -0.987724027482    12.000000000000
           C          1.622133216665    -0.121618587992    -0.277684027482    12.000000000000
           H          1.310870216665     2.029300412008    -0.297855027482     1.007825032070
           H          0.314292216665     1.155901412008    -1.451688027482     1.007825032070
           C          0.605862216665    -0.418435587992     0.823179972518    12.000000000000
           H          2.612273216665    -0.070639587992     0.163283972518     1.007825032070
           H          1.621366216665    -0.942483587992    -0.985102027482     1.007825032070
           N         -0.769326783335    -0.253429587992     0.287049972518    14.003074004780
           H          0.671725216665    -1.434975587992     1.175515972518     1.007825032070
           H          0.690874216665     0.278180412008     1.643010972518     1.007825032070
           O         -1.650709783335    -0.088016587992     1.072654972518    15.994914619560
           O         -0.901408783335    -0.330280587992    -0.896450027482    15.994914619560

  Running in c1 symmetry.

  Rotational constants: A =      0.23172  B =      0.09240  C =      0.07950 [cm^-1]
  Rotational constants: A =   6946.78846  B =   2770.02021  C =   2383.35164 [MHz]
  Nuclear repulsion =  257.129444202243633

  Charge       = 0
  Multiplicity = 1
  Electrons    = 48
  Nalpha       = 24
  Nbeta        = 24

  ==> Algorithm <==

  SCF Algorithm Type is DF.
  DIIS enabled.
  MOM disabled.
  Fractional occupation disabled.
  Guess Type is CORE.
  Energy threshold   = 1.00e-06
  Density threshold  = 1.00e-06
  Integral threshold = 0.00e+00

  ==> Primary Basis <==

  Basis Set: 6-31G*
    Number of shells: 50
    Number of basis function: 104
    Number of Cartesian functions: 104
    Spherical Harmonics?: false
    Max angular momentum: 2

  ==> Pre-Iterations <==

   -------------------------------------------------------
    Irrep   Nso     Nmo     Nalpha   Nbeta   Ndocc  Nsocc
   -------------------------------------------------------
     A        104     104       0       0       0       0
   -------------------------------------------------------
    Total     104     104      24      24      24       0
   -------------------------------------------------------

 OEINTS: Overlap, kinetic, potential, dipole, and quadrupole integrals
         stored in file 35.

  ==> Integral Setup <==

  ==> DFJK: Density-Fitted J/K Matrices <==

    J tasked:                  Yes
    K tasked:                  Yes
    wK tasked:                  No
    OpenMP threads:              1
    Integrals threads:           1
    Memory (MB):              1430
    Algorithm:                Core
    Integral Cache:           NONE
    Schwarz Cutoff:          1E-12
    Fitting Condition:       1E-12

   => Auxiliary Basis Set <=

  Basis Set: 
    Number of shells: 207
    Number of basis function: 661
    Number of Cartesian functions: 661
    Spherical Harmonics?: false
    Max angular momentum: 3

  Minimum eigenvalue in the overlap matrix is 3.0448579872E-03.
  Using Symmetric Orthogonalization.
  SCF Guess: Core (One-Electron) Hamiltonian.

  ==> Iterations <==

                           Total Energy        Delta E     RMS |[F,P]|

   @DF-RHF iter   1:  -244.98700565180303   -2.44987e+02   8.95846e-02 
   @DF-RHF iter   2:  -177.90392357269315    6.70831e+01   9.03289e-02 DIIS
   @DF-RHF iter   3:  -288.06079567582702   -1.10157e+02   4.58924e-02 DIIS
   @DF-RHF iter   4:  -275.40237613463495    1.26584e+01   6.68727e-02 DIIS
   @DF-RHF iter   5:  -303.68908754257626   -2.82867e+01   4.48835e-02 DIIS
   @DF-RHF iter   6:  -320.31390806057351   -1.66248e+01   1.53525e-02 DIIS
   @DF-RHF iter   7:  -321.48943257700518   -1.17552e+00   6.31034e-03 DIIS
   @DF-RHF iter   8:  -321.65876773752979   -1.69335e-01   3.18853e-03 DIIS
   @DF-RHF iter   9:  -321.71528446619044   -5.65167e-02   1.03702e-03 DIIS
   @DF-RHF iter  10:  -321.72238320948640   -7.09874e-03   4.25068e-04 DIIS
   @DF-RHF iter  11:  -321.72382163918707   -1.43843e-03   1.75350e-04 DIIS
   @DF-RHF iter  12:  -321.72401347259432   -1.91833e-04   5.67362e-05 DIIS
   @DF-RHF iter  13:  -321.72405520598744   -4.17334e-05   2.86291e-05 DIIS
   @DF-RHF iter  14:  -321.72406628632410   -1.10803e-05   1.24019e-05 DIIS
   @DF-RHF iter  15:  -321.72406873630763   -2.44998e-06   4.12533e-06 DIIS
   @DF-RHF iter  16:  -321.72406898974276   -2.53435e-07   9.87629e-07 DIIS

  ==> Post-Iterations <==

    Orbital Energies (a.u.)
    -----------------------

    Doubly Occupied:                                                      

       1A    -20.603909     2A    -20.603020     3A    -15.850320  
       4A    -11.300777     5A    -11.247707     6A    -11.216879  
       7A     -1.634844     8A     -1.421190     9A     -1.134182  
      10A     -1.016809    11A     -0.888123    12A     -0.823575  
      13A     -0.757157    14A     -0.751369    15A     -0.728205  
      16A     -0.649882    17A     -0.615947    18A     -0.579568  
      19A     -0.528788    20A     -0.513721    21A     -0.509327  
      22A     -0.484594    23A     -0.476929    24A     -0.442906  

    Virtual:                                                              

      25A      0.113464    26A      0.218921    27A      0.270044  
      28A      0.281978    29A      0.291983    30A      0.299584  
      31A      0.323479    32A      0.334232    33A      0.358761  
      34A      0.383703    35A      0.413857    36A      0.534690  
      37A      0.610076    38A      0.691065    39A      0.701781  
      40A      0.736044    41A      0.751705    42A      0.779246  
      43A      0.851333    44A      0.871731    45A      0.916426  
      46A      0.945699    47A      0.968257    48A      1.044459  
      49A      1.071141    50A      1.082189    51A      1.103781  
      52A      1.119118    53A      1.152299    54A      1.154151  
      55A      1.175736    56A      1.198084    57A      1.211032  
      58A      1.238394    59A      1.252506    60A      1.280235  
      61A      1.301593    62A      1.343856    63A      1.375256  
      64A      1.392204    65A      1.555461    66A      1.616842  
      67A      1.698434    68A      1.713951    69A      1.785620  
      70A      1.885959    71A      1.915922    72A      1.944777  
      73A      2.065043    74A      2.088512    75A      2.118574  
      76A      2.149787    77A      2.162569    78A      2.223838  
      79A      2.253376    80A      2.284902    81A      2.339433  
      82A      2.356196    83A      2.430111    84A      2.439855  
      85A      2.524061    86A      2.582609    87A      2.672416  
      88A      2.694264    89A      2.742660    90A      2.812072  
      91A      2.829006    92A      2.876154    93A      2.992472  
      94A      3.085660    95A      3.231725    96A      3.289734  
      97A      3.308864    98A      3.501893    99A      4.111132  
     100A      4.229215   101A      4.326190   102A      4.617426  
     103A      4.732450   104A      4.925055  

    Final Occupation by Irrep:
              A 
    DOCC [    24 ]

  Energy converged.

  @DF-RHF Final Energy:  -321.72406898974276

   => Energetics <=

    Nuclear Repulsion Energy =            257.1294442022436328
    One-Electron Energy =                -948.1475028128336362
    Two-Electron Energy =                 369.2939896208472419
    DFT Exchange-Correlation Energy =       0.0000000000000000
    Empirical Dispersion Energy =           0.0000000000000000
    PCM Polarization Energy =               0.0000000000000000
    EFP Energy =                            0.0000000000000000
    Total Energy =                       -321.7240689897428183

    Alert: EFP and PCM quantities not currently incorporated into SCF psivars.

Properties will be evaluated at   0.000000,   0.000000,   0.000000 Bohr
  ==> Properties <==


Properties computed using the SCF density matrix

  Nuclear Dipole Moment: (a.u.)
     X:     8.6558      Y:     2.2537      Z:    -1.4243

  Electronic Dipole Moment: (a.u.)
     X:    -7.1970      Y:    -2.4064      Z:     1.8263

  Dipole Moment: (a.u.)
     X:     1.4587      Y:    -0.1527      Z:     0.4020     Total:     1.5208

  Dipole Moment: (Debye)
     X:     3.7077      Y:    -0.3880      Z:     1.0218     Total:     3.8655


  Saving occupied orbitals to File 180.

*** tstop() called on cx1-3-15-4.cx1.hpc.ic.ac.uk at Tue Jul  5 16:47:15 2016
Module time:
	user time   =       5.57 seconds =       0.09 minutes
	system time =       0.04 seconds =       0.00 minutes
	total time  =          6 seconds =       0.10 minutes
Total time:
	user time   =       5.57 seconds =       0.09 minutes
	system time =       0.04 seconds =       0.00 minutes
	total time  =          6 seconds =       0.10 minutes


Properties will be evaluated at   0.000000,   0.000000,   0.000000 Bohr

Properties computed using the  density matrix

  Nuclear Dipole Moment: (a.u.)
     X:     8.6558      Y:     2.2537      Z:    -1.4243

  Electronic Dipole Moment: (a.u.)
     X:    -7.1970      Y:    -2.4064      Z:     1.8263

  Dipole Moment: (a.u.)
     X:     1.4587      Y:    -0.1527      Z:     0.4020     Total:     1.5208

  Dipole Moment: (Debye)
     X:     3.7077      Y:    -0.3880      Z:     1.0218     Total:     3.8655

  Quadrupole Moment: (Debye Ang)
    XX:   -40.1364     YY:   -34.6203     ZZ:   -37.9172
    XY:    -0.7858     XZ:     1.8654     YZ:    -1.0132

  Traceless Quadrupole Moment: (Debye Ang)
    XX:    -2.5784     YY:     2.9377     ZZ:    -0.3592
    XY:    -0.7858     XZ:     1.8654     YZ:    -1.0132

  Mulliken Charges: (a.u.)
   Center  Symbol    Alpha    Beta     Spin     Total
       1     H     0.41374  0.41374  0.00000  0.17253
       2     C     3.26150  3.26150  0.00000 -0.52299
       3     C     3.16708  3.16708  0.00000 -0.33417
       4     H     0.42202  0.42202  0.00000  0.15597
       5     H     0.38450  0.38450  0.00000  0.23100
       6     C     3.09684  3.09684  0.00000 -0.19367
       7     H     0.40941  0.40941  0.00000  0.18118
       8     H     0.40205  0.40205  0.00000  0.19591
       9     N     3.22113  3.22113  0.00000  0.55774
      10     H     0.38132  0.38132  0.00000  0.23736
      11     H     0.38578  0.38578  0.00000  0.22844
      12     O     4.22651  4.22651  0.00000 -0.45301
      13     O     4.22814  4.22814  0.00000 -0.45627

   Total alpha = 24.00000, Total beta = 24.00000, Total charge = -0.00000


*** PSI4 exiting successfully. Buy a developer a beer!
