    -----------------------------------------------------------------------
          Psi4: An Open-Source Ab Initio Electronic Structure Package
                              Psi4 (no tag) Driver

                          Git: Rev {detached?}  

    J. M. Turney, A. C. Simmonett, R. M. Parrish, E. G. Hohenstein,
    F. A. Evangelista, J. T. Fermann, B. J. Mintz, L. A. Burns, J. J. Wilke,
    M. L. Abrams, N. J. Russ, M. L. Leininger, C. L. Janssen, E. T. Seidl,
    W. D. Allen, H. F. Schaefer, R. A. King, E. F. Valeev, C. D. Sherrill,
    and T. D. Crawford, WIREs Comput. Mol. Sci. 2, 556-565 (2012)
    (doi: 10.1002/wcms.93)

                         Additional Contributions by
    A. E. DePrince, M. Saitow, U. Bozkaya, A. Yu. Sokolov
    -----------------------------------------------------------------------


    Psi4 started on: Tue Jul  5 16:38:47 2016

    Process ID:  12314
    PSI4DATADIR: /export131/home/mjharvey/miniconda3/share
    Memory level set to 256.000 MB

  ==> Input File <==

--------------------------------------------------------------------------
set {
	reference rhf
	basis 6-31G*
}


set_num_threads( 1 )
memory 2 gb

molecule MOL {
0 1

O	 0.391030	 1.298905	 0.000133
C	 0.503002	 0.111612	 0.000005
C	 -0.702327	 -0.811998	 -0.000075
C	 1.863306	 -0.554493	 0.000030
C	 -0.360435	 -2.261991	 -0.320669
H	 -1.182870	 -0.733944	 0.973453
H	 -1.424740	 -0.418169	 -0.712665
H	 0.339430	 -2.664464	 0.401428
H	 -1.256631	 -2.873459	 -0.306626
H	 0.095414	 -2.345890	 -1.299639
H	 1.974395	 -1.189404	 -0.874166
H	 2.638695	 0.198920	 -0.000196
H	 1.974487	 -1.188655	 0.874727

	symmetry c1
}
ee = energy('scf')
oeprop('DIPOLE', 'QUADRUPOLE', 'MULLIKEN_CHARGES')
f=open( 'psi4out.xyz', 'w' )
f.write( "13  " )
f.write( str(ee) + "\n" )
f.write( MOL.save_string_xyz() )
f.close()
--------------------------------------------------------------------------

  Memory set to   2.000 GiB by Python script.

*** tstart() called on cx1-3-4-4.cx1.hpc.ic.ac.uk
*** at Tue Jul  5 16:38:47 2016


         ---------------------------------------------------------
                                   SCF
            by Justin Turney, Rob Parrish, and Andy Simmonett
                              RHF Reference
                        1 Threads,   2000 MiB Core
         ---------------------------------------------------------

  ==> Geometry <==

    Molecular point group: c1
    Full point group: C1

    Geometry (in Angstrom), charge = 0, multiplicity = 1:

       Center              X                  Y                   Z               Mass       
    ------------   -----------------  -----------------  -----------------  -----------------
           O          0.042975583100     1.753117010026     0.066711052854    15.994914619560
           C          0.154947583100     0.565824010026     0.066583052854    12.000000000000
           C         -1.050381416900    -0.357785989974     0.066503052854    12.000000000000
           C          1.515251583100    -0.100280989974     0.066608052854    12.000000000000
           C         -0.708489416900    -1.807778989974    -0.254090947146    12.000000000000
           H         -1.530924416900    -0.279731989974     1.040031052854     1.007825032070
           H         -1.772794416900     0.036043010026    -0.646086947146     1.007825032070
           H         -0.008624416900    -2.210251989974     0.468006052854     1.007825032070
           H         -1.604685416900    -2.419246989974    -0.240047947146     1.007825032070
           H         -0.252640416900    -1.891677989974    -1.233060947146     1.007825032070
           H          1.626340583100    -0.735191989974    -0.807587947146     1.007825032070
           H          2.290640583100     0.653132010026     0.066382052854     1.007825032070
           H          1.626432583100    -0.734442989974     0.941305052854     1.007825032070

  Running in c1 symmetry.

  Rotational constants: A =      0.27945  B =      0.13328  C =      0.09543 [cm^-1]
  Rotational constants: A =   8377.62529  B =   3995.63373  C =   2861.03094 [MHz]
  Nuclear repulsion =  178.011899899361254

  Charge       = 0
  Multiplicity = 1
  Electrons    = 40
  Nalpha       = 20
  Nbeta        = 20

  ==> Algorithm <==

  SCF Algorithm Type is DF.
  DIIS enabled.
  MOM disabled.
  Fractional occupation disabled.
  Guess Type is CORE.
  Energy threshold   = 1.00e-06
  Density threshold  = 1.00e-06
  Integral threshold = 0.00e+00

  ==> Primary Basis <==

  Basis Set: 6-31G*
    Number of shells: 46
    Number of basis function: 91
    Number of Cartesian functions: 91
    Spherical Harmonics?: false
    Max angular momentum: 2

  ==> Pre-Iterations <==

   -------------------------------------------------------
    Irrep   Nso     Nmo     Nalpha   Nbeta   Ndocc  Nsocc
   -------------------------------------------------------
     A         91      91       0       0       0       0
   -------------------------------------------------------
    Total      91      91      20      20      20       0
   -------------------------------------------------------

 OEINTS: Overlap, kinetic, potential, dipole, and quadrupole integrals
         stored in file 35.

  ==> Integral Setup <==

  ==> DFJK: Density-Fitted J/K Matrices <==

    J tasked:                  Yes
    K tasked:                  Yes
    wK tasked:                  No
    OpenMP threads:              1
    Integrals threads:           1
    Memory (MB):              1430
    Algorithm:                Core
    Integral Cache:           NONE
    Schwarz Cutoff:          1E-12
    Fitting Condition:       1E-12

   => Auxiliary Basis Set <=

  Basis Set: 
    Number of shells: 192
    Number of basis function: 605
    Number of Cartesian functions: 605
    Spherical Harmonics?: false
    Max angular momentum: 3

  Minimum eigenvalue in the overlap matrix is 3.9757824018E-03.
  Using Symmetric Orthogonalization.
  SCF Guess: Core (One-Electron) Hamiltonian.

  ==> Iterations <==

                           Total Energy        Delta E     RMS |[F,P]|

   @DF-RHF iter   1:  -182.40334582569670   -1.82403e+02   8.03065e-02 
   @DF-RHF iter   2:  -165.14222700412870    1.72611e+01   6.31267e-02 DIIS
   @DF-RHF iter   3:  -202.79005548954746   -3.76478e+01   6.00121e-02 DIIS
   @DF-RHF iter   4:  -227.84916470000621   -2.50591e+01   2.10010e-02 DIIS
   @DF-RHF iter   5:  -230.83103791943125   -2.98187e+00   5.67016e-03 DIIS
   @DF-RHF iter   6:  -230.96635378168452   -1.35316e-01   2.50754e-03 DIIS
   @DF-RHF iter   7:  -230.98641962737747   -2.00658e-02   8.48812e-04 DIIS
   @DF-RHF iter   8:  -230.98965367609821   -3.23405e-03   5.06194e-04 DIIS
   @DF-RHF iter   9:  -230.99091686840308   -1.26319e-03   9.95314e-05 DIIS
   @DF-RHF iter  10:  -230.99101346032444   -9.65919e-05   3.42588e-05 DIIS
   @DF-RHF iter  11:  -230.99103272618510   -1.92659e-05   1.47663e-05 DIIS
   @DF-RHF iter  12:  -230.99103740784847   -4.68166e-06   7.26411e-06 DIIS
   @DF-RHF iter  13:  -230.99103888021608   -1.47237e-06   2.88377e-06 DIIS
   @DF-RHF iter  14:  -230.99103909910190   -2.18886e-07   8.11121e-07 DIIS

  ==> Post-Iterations <==

    Orbital Energies (a.u.)
    -----------------------

    Doubly Occupied:                                                      

       1A    -20.547992     2A    -11.326744     3A    -11.234771  
       4A    -11.228120     5A    -11.227226     6A     -1.393957  
       7A     -1.074872     8A     -0.990138     9A     -0.891039  
      10A     -0.732423    11A     -0.657654    12A     -0.646215  
      13A     -0.626744    14A     -0.580582    15A     -0.551768  
      16A     -0.545793    17A     -0.533235    18A     -0.517344  
      19A     -0.473754    20A     -0.399199  

    Virtual:                                                              

      21A      0.166830    22A      0.217392    23A      0.271447  
      24A      0.273619    25A      0.297730    26A      0.313117  
      27A      0.316652    28A      0.335766    29A      0.371818  
      30A      0.407313    31A      0.422396    32A      0.486573  
      33A      0.501879    34A      0.722160    35A      0.727217  
      36A      0.734807    37A      0.764900    38A      0.829978  
      39A      0.838304    40A      0.859517    41A      0.930360  
      42A      0.984931    43A      0.995798    44A      1.011816  
      45A      1.032686    46A      1.112218    47A      1.133043  
      48A      1.144088    49A      1.153414    50A      1.172309  
      51A      1.187811    52A      1.199514    53A      1.223214  
      54A      1.236121    55A      1.292921    56A      1.329798  
      57A      1.354969    58A      1.388072    59A      1.632187  
      60A      1.680331    61A      1.711352    62A      1.792683  
      63A      1.861867    64A      1.966470    65A      2.062240  
      66A      2.074594    67A      2.125260    68A      2.161373  
      69A      2.207321    70A      2.259352    71A      2.275251  
      72A      2.302301    73A      2.356846    74A      2.453972  
      75A      2.562685    76A      2.598195    77A      2.638264  
      78A      2.647448    79A      2.734545    80A      2.753281  
      81A      2.835417    82A      2.899700    83A      2.988924  
      84A      3.125781    85A      3.380089    86A      3.404788  
      87A      4.396053    88A      4.531386    89A      4.708487  
      90A      4.744090    91A      4.986536  

    Final Occupation by Irrep:
              A 
    DOCC [    20 ]

  Energy converged.

  @DF-RHF Final Energy:  -230.99103909910190

   => Energetics <=

    Nuclear Repulsion Energy =            178.0118998993612536
    One-Electron Energy =                -665.6468483026324066
    Two-Electron Energy =                 256.6439093041686874
    DFT Exchange-Correlation Energy =       0.0000000000000000
    Empirical Dispersion Energy =           0.0000000000000000
    PCM Polarization Energy =               0.0000000000000000
    EFP Energy =                            0.0000000000000000
    Total Energy =                       -230.9910390991024656

    Alert: EFP and PCM quantities not currently incorporated into SCF psivars.

Properties will be evaluated at   0.000000,   0.000000,   0.000000 Bohr
  ==> Properties <==


Properties computed using the SCF density matrix

  Nuclear Dipole Moment: (a.u.)
     X:     0.3506      Y:    -7.0989      Z:    -0.3850

  Electronic Dipole Moment: (a.u.)
     X:    -0.3005      Y:     5.8453      Z:     0.3901

  Dipole Moment: (a.u.)
     X:     0.0501      Y:    -1.2535      Z:     0.0051     Total:     1.2546

  Dipole Moment: (Debye)
     X:     0.1274      Y:    -3.1862      Z:     0.0129     Total:     3.1888


  Saving occupied orbitals to File 180.

*** tstop() called on cx1-3-4-4.cx1.hpc.ic.ac.uk at Tue Jul  5 16:38:53 2016
Module time:
	user time   =       5.23 seconds =       0.09 minutes
	system time =       0.06 seconds =       0.00 minutes
	total time  =          6 seconds =       0.10 minutes
Total time:
	user time   =       5.23 seconds =       0.09 minutes
	system time =       0.06 seconds =       0.00 minutes
	total time  =          6 seconds =       0.10 minutes


Properties will be evaluated at   0.000000,   0.000000,   0.000000 Bohr

Properties computed using the  density matrix

  Nuclear Dipole Moment: (a.u.)
     X:     0.3506      Y:    -7.0989      Z:    -0.3850

  Electronic Dipole Moment: (a.u.)
     X:    -0.3005      Y:     5.8453      Z:     0.3901

  Dipole Moment: (a.u.)
     X:     0.0501      Y:    -1.2535      Z:     0.0051     Total:     1.2546

  Dipole Moment: (Debye)
     X:     0.1274      Y:    -3.1862      Z:     0.0129     Total:     3.1888

  Quadrupole Moment: (Debye Ang)
    XX:   -29.9967     YY:   -38.4579     ZZ:   -30.5558
    XY:     0.2875     XZ:    -0.0041     YZ:    -0.3179

  Traceless Quadrupole Moment: (Debye Ang)
    XX:     3.0067     YY:    -5.4544     ZZ:     2.4477
    XY:     0.2875     XZ:    -0.0041     YZ:    -0.3179

  Mulliken Charges: (a.u.)
   Center  Symbol    Alpha    Beta     Spin     Total
       1     O     4.26201  4.26201  0.00000 -0.52402
       2     C     2.73458  2.73458  0.00000  0.53085
       3     C     3.20432  3.20432  0.00000 -0.40865
       4     C     3.29547  3.29547  0.00000 -0.59094
       5     C     3.25224  3.25224  0.00000 -0.50448
       6     H     0.40036  0.40036  0.00000  0.19928
       7     H     0.39853  0.39853  0.00000  0.20293
       8     H     0.41644  0.41644  0.00000  0.16712
       9     H     0.41036  0.41036  0.00000  0.17928
      10     H     0.41586  0.41586  0.00000  0.16827
      11     H     0.40665  0.40665  0.00000  0.18669
      12     H     0.39548  0.39548  0.00000  0.20904
      13     H     0.40769  0.40769  0.00000  0.18462

   Total alpha = 20.00000, Total beta = 20.00000, Total charge = -0.00000


*** PSI4 exiting successfully. Buy a developer a beer!
