    -----------------------------------------------------------------------
          Psi4: An Open-Source Ab Initio Electronic Structure Package
                              Psi4 (no tag) Driver

                          Git: Rev {detached?}  

    J. M. Turney, A. C. Simmonett, R. M. Parrish, E. G. Hohenstein,
    F. A. Evangelista, J. T. Fermann, B. J. Mintz, L. A. Burns, J. J. Wilke,
    M. L. Abrams, N. J. Russ, M. L. Leininger, C. L. Janssen, E. T. Seidl,
    W. D. Allen, H. F. Schaefer, R. A. King, E. F. Valeev, C. D. Sherrill,
    and T. D. Crawford, WIREs Comput. Mol. Sci. 2, 556-565 (2012)
    (doi: 10.1002/wcms.93)

                         Additional Contributions by
    A. E. DePrince, M. Saitow, U. Bozkaya, A. Yu. Sokolov
    -----------------------------------------------------------------------


    Psi4 started on: Tue Jul  5 16:48:14 2016

    Process ID:  32637
    PSI4DATADIR: /export131/home/mjharvey/miniconda3/share
    Memory level set to 256.000 MB

  ==> Input File <==

--------------------------------------------------------------------------
set {
	reference rhf
	basis 6-31G*
}


set_num_threads( 1 )
memory 2 gb

molecule MOL {
0 1

H	 -3.650283	 0.221984	 0.000000
C	 -2.577024	 0.154109	 0.000000
C	 -1.960329	 -1.089307	 0.000000
C	 -1.811733	 1.307557	 0.000000
H	 -2.554473	 -1.985285	 0.000000
C	 -0.581547	 -1.175855	 0.000000
H	 -2.287118	 2.271701	 0.000000
C	 -0.428719	 1.219221	 0.000000
H	 -0.090826	 -2.129898	 0.000000
C	 0.198341	 -0.021559	 0.000000
H	 0.149947	 2.124040	 0.000000
C	 1.691355	 -0.173192	 0.000000
C	 2.292392	 -1.544139	 0.229789
O	 2.398280	 0.774258	 -0.178801
H	 1.994680	 -1.940953	 1.195028
H	 3.368834	 -1.457108	 0.195344
H	 1.963912	 -2.243903	 -0.531926

	symmetry c1
}
ee = energy('scf')
oeprop('DIPOLE', 'QUADRUPOLE', 'MULLIKEN_CHARGES')
f=open( 'psi4out.xyz', 'w' )
f.write( "17  " )
f.write( str(ee) + "\n" )
f.write( MOL.save_string_xyz() )
f.close()
--------------------------------------------------------------------------

  Memory set to   2.000 GiB by Python script.

*** tstart() called on cx1-3-15-4.cx1.hpc.ic.ac.uk
*** at Tue Jul  5 16:48:15 2016


         ---------------------------------------------------------
                                   SCF
            by Justin Turney, Rob Parrish, and Andy Simmonett
                              RHF Reference
                        1 Threads,   2000 MiB Core
         ---------------------------------------------------------

  ==> Geometry <==

    Molecular point group: c1
    Full point group: C1

    Geometry (in Angstrom), charge = 0, multiplicity = 1:

       Center              X                  Y                   Z               Mass       
    ------------   -----------------  -----------------  -----------------  -----------------
           H         -3.642946013337     0.294227936978    -0.006352993725     1.007825032070
           C         -2.569687013337     0.226352936978    -0.006352993725    12.000000000000
           C         -1.952992013337    -1.017063063022    -0.006352993725    12.000000000000
           C         -1.804396013337     1.379800936978    -0.006352993725    12.000000000000
           H         -2.547136013337    -1.913041063022    -0.006352993725     1.007825032070
           C         -0.574210013337    -1.103611063022    -0.006352993725    12.000000000000
           H         -2.279781013337     2.343944936978    -0.006352993725     1.007825032070
           C         -0.421382013337     1.291464936978    -0.006352993725    12.000000000000
           H         -0.083489013337    -2.057654063022    -0.006352993725     1.007825032070
           C          0.205677986663     0.050684936978    -0.006352993725    12.000000000000
           H          0.157283986663     2.196283936978    -0.006352993725     1.007825032070
           C          1.698691986663    -0.100948063022    -0.006352993725    12.000000000000
           C          2.299728986663    -1.471895063022     0.223436006275    12.000000000000
           O          2.405616986663     0.846501936978    -0.185153993725    15.994914619560
           H          2.002016986663    -1.868709063022     1.188675006275     1.007825032070
           H          3.376170986663    -1.384864063022     0.188991006275     1.007825032070
           H          1.971248986663    -2.171659063022    -0.538278993725     1.007825032070

  Running in c1 symmetry.

  Rotational constants: A =      0.12489  B =      0.04081  C =      0.03104 [cm^-1]
  Rotational constants: A =   3744.05300  B =   1223.42757  C =    930.41302 [MHz]
  Nuclear repulsion =  403.639024468639548

  Charge       = 0
  Multiplicity = 1
  Electrons    = 64
  Nalpha       = 32
  Nbeta        = 32

  ==> Algorithm <==

  SCF Algorithm Type is DF.
  DIIS enabled.
  MOM disabled.
  Fractional occupation disabled.
  Guess Type is CORE.
  Energy threshold   = 1.00e-06
  Density threshold  = 1.00e-06
  Integral threshold = 0.00e+00

  ==> Primary Basis <==

  Basis Set: 6-31G*
    Number of shells: 70
    Number of basis function: 151
    Number of Cartesian functions: 151
    Spherical Harmonics?: false
    Max angular momentum: 2

  ==> Pre-Iterations <==

   -------------------------------------------------------
    Irrep   Nso     Nmo     Nalpha   Nbeta   Ndocc  Nsocc
   -------------------------------------------------------
     A        151     151       0       0       0       0
   -------------------------------------------------------
    Total     151     151      32      32      32       0
   -------------------------------------------------------

 OEINTS: Overlap, kinetic, potential, dipole, and quadrupole integrals
         stored in file 35.

  ==> Integral Setup <==

  ==> DFJK: Density-Fitted J/K Matrices <==

    J tasked:                  Yes
    K tasked:                  Yes
    wK tasked:                  No
    OpenMP threads:              1
    Integrals threads:           1
    Memory (MB):              1430
    Algorithm:                Core
    Integral Cache:           NONE
    Schwarz Cutoff:          1E-12
    Fitting Condition:       1E-12

   => Auxiliary Basis Set <=

  Basis Set: 
    Number of shells: 288
    Number of basis function: 929
    Number of Cartesian functions: 929
    Spherical Harmonics?: false
    Max angular momentum: 3

  Minimum eigenvalue in the overlap matrix is 4.3249701550E-04.
  Using Symmetric Orthogonalization.
  SCF Guess: Core (One-Electron) Hamiltonian.

  ==> Iterations <==

                           Total Energy        Delta E     RMS |[F,P]|

   @DF-RHF iter   1:  -296.39093425954849   -2.96391e+02   6.41246e-02 
   @DF-RHF iter   2:  -279.27298372645197    1.71180e+01   5.18987e-02 DIIS
   @DF-RHF iter   3:  -322.04297726793305   -4.27700e+01   5.15075e-02 DIIS
   @DF-RHF iter   4:  -372.44727169356219   -5.04043e+01   2.50114e-02 DIIS
   @DF-RHF iter   5:  -360.16625941270451    1.22810e+01   3.31420e-02 DIIS
   @DF-RHF iter   6:  -381.91133313464587   -2.17451e+01   7.31601e-03 DIIS
   @DF-RHF iter   7:  -382.32136292673732   -4.10030e-01   3.71291e-03 DIIS
   @DF-RHF iter   8:  -382.45937772721965   -1.38015e-01   9.24211e-04 DIIS
   @DF-RHF iter   9:  -382.47189103505201   -1.25133e-02   2.83631e-04 DIIS
   @DF-RHF iter  10:  -382.47322166567761   -1.33063e-03   7.32239e-05 DIIS
   @DF-RHF iter  11:  -382.47341469374834   -1.93028e-04   4.27360e-05 DIIS
   @DF-RHF iter  12:  -382.47345863450420   -4.39408e-05   2.43612e-05 DIIS
   @DF-RHF iter  13:  -382.47347463364184   -1.59991e-05   7.51889e-06 DIIS
   @DF-RHF iter  14:  -382.47347666496199   -2.03132e-06   2.22134e-06 DIIS
   @DF-RHF iter  15:  -382.47347693380647   -2.68844e-07   1.12416e-06 DIIS
   @DF-RHF iter  16:  -382.47347698980838   -5.60019e-08   4.30734e-07 DIIS

  ==> Post-Iterations <==

    Orbital Energies (a.u.)
    -----------------------

    Doubly Occupied:                                                      

       1A    -20.549374     2A    -11.330943     3A    -11.246837  
       4A    -11.246435     5A    -11.244089     6A    -11.242911  
       7A    -11.240818     8A    -11.239251     9A    -11.230480  
      10A     -1.395275    11A     -1.166481    12A     -1.052313  
      13A     -1.026541    14A     -0.995838    15A     -0.861353  
      16A     -0.835610    17A     -0.759801    18A     -0.709423  
      19A     -0.655824    20A     -0.646214    21A     -0.627752  
      22A     -0.607882    23A     -0.599359    24A     -0.595615  
      25A     -0.552221    26A     -0.525338    27A     -0.520001  
      28A     -0.499890    29A     -0.490902    30A     -0.409927  
      31A     -0.346011    32A     -0.342038  

    Virtual:                                                              

      33A      0.094447    34A      0.137019    35A      0.216786  
      36A      0.229640    37A      0.256178    38A      0.291596  
      39A      0.304857    40A      0.310578    41A      0.323652  
      42A      0.334649    43A      0.358611    44A      0.376776  
      45A      0.393879    46A      0.450026    47A      0.462507  
      48A      0.490684    49A      0.499876    50A      0.520716  
      51A      0.566695    52A      0.681916    53A      0.730908  
      54A      0.736958    55A      0.746089    56A      0.759754  
      57A      0.772253    58A      0.786248    59A      0.806012  
      60A      0.814909    61A      0.823957    62A      0.831048  
      63A      0.838097    64A      0.845840    65A      0.885319  
      66A      0.901801    67A      0.920360    68A      0.966249  
      69A      0.989705    70A      0.996557    71A      1.020854  
      72A      1.083364    73A      1.093189    74A      1.103567  
      75A      1.110249    76A      1.119432    77A      1.149572  
      78A      1.157755    79A      1.172984    80A      1.194303  
      81A      1.204033    82A      1.231367    83A      1.236992  
      84A      1.278598    85A      1.309734    86A      1.319445  
      87A      1.329854    88A      1.389858    89A      1.415058  
      90A      1.446061    91A      1.498619    92A      1.522440  
      93A      1.540481    94A      1.602774    95A      1.686350  
      96A      1.692269    97A      1.709789    98A      1.724470  
      99A      1.752087   100A      1.764716   101A      1.767434  
     102A      1.784678   103A      1.934701   104A      1.971623  
     105A      2.048473   106A      2.076633   107A      2.118328  
     108A      2.128465   109A      2.165014   110A      2.180203  
     111A      2.232693   112A      2.237089   113A      2.315083  
     114A      2.318586   115A      2.351756   116A      2.392861  
     117A      2.407018   118A      2.459879   119A      2.471013  
     120A      2.481844   121A      2.511852   122A      2.577715  
     123A      2.612968   124A      2.616921   125A      2.626295  
     126A      2.638642   127A      2.729390   128A      2.778979  
     129A      2.879518   130A      2.931728   131A      2.936409  
     132A      2.956332   133A      3.033712   134A      3.046889  
     135A      3.114028   136A      3.125067   137A      3.130178  
     138A      3.237162   139A      3.345836   140A      3.382662  
     141A      3.565250   142A      3.831346   143A      4.385982  
     144A      4.517658   145A      4.536662   146A      4.556032  
     147A      4.659120   148A      4.745620   149A      4.761835  
     150A      4.917630   151A      5.146736  

    Final Occupation by Irrep:
              A 
    DOCC [    32 ]

  Energy converged.

  @DF-RHF Final Energy:  -382.47347698980838

   => Energetics <=

    Nuclear Repulsion Energy =            403.6390244686395476
    One-Electron Energy =               -1318.6394891544618986
    Two-Electron Energy =                 532.5269876960126112
    DFT Exchange-Correlation Energy =       0.0000000000000000
    Empirical Dispersion Energy =           0.0000000000000000
    PCM Polarization Energy =               0.0000000000000000
    EFP Energy =                            0.0000000000000000
    Total Energy =                       -382.4734769898097966

    Alert: EFP and PCM quantities not currently incorporated into SCF psivars.

Properties will be evaluated at   0.000000,   0.000000,   0.000000 Bohr
  ==> Properties <==


Properties computed using the SCF density matrix

  Nuclear Dipole Moment: (a.u.)
     X:    -0.9696      Y:    -4.2722      Z:     0.7562

  Electronic Dipole Moment: (a.u.)
     X:     0.0077      Y:     3.4129      Z:    -0.5714

  Dipole Moment: (a.u.)
     X:    -0.9620      Y:    -0.8592      Z:     0.1848     Total:     1.3030

  Dipole Moment: (Debye)
     X:    -2.4451      Y:    -2.1840      Z:     0.4697     Total:     3.3119


  Saving occupied orbitals to File 180.

*** tstop() called on cx1-3-15-4.cx1.hpc.ic.ac.uk at Tue Jul  5 16:48:32 2016
Module time:
	user time   =      16.34 seconds =       0.27 minutes
	system time =       0.20 seconds =       0.00 minutes
	total time  =         17 seconds =       0.28 minutes
Total time:
	user time   =      16.34 seconds =       0.27 minutes
	system time =       0.20 seconds =       0.00 minutes
	total time  =         17 seconds =       0.28 minutes


Properties will be evaluated at   0.000000,   0.000000,   0.000000 Bohr

Properties computed using the  density matrix

  Nuclear Dipole Moment: (a.u.)
     X:    -0.9696      Y:    -4.2722      Z:     0.7562

  Electronic Dipole Moment: (a.u.)
     X:     0.0077      Y:     3.4129      Z:    -0.5714

  Dipole Moment: (a.u.)
     X:    -0.9620      Y:    -0.8592      Z:     0.1848     Total:     1.3030

  Dipole Moment: (Debye)
     X:    -2.4451      Y:    -2.1840      Z:     0.4697     Total:     3.3119

  Quadrupole Moment: (Debye Ang)
    XX:   -53.5261     YY:   -48.0256     ZZ:   -55.4603
    XY:    -6.4548     XZ:     1.2408     YZ:     0.3727

  Traceless Quadrupole Moment: (Debye Ang)
    XX:    -1.1888     YY:     4.3117     ZZ:    -3.1230
    XY:    -6.4548     XZ:     1.2408     YZ:     0.3727

  Mulliken Charges: (a.u.)
   Center  Symbol    Alpha    Beta     Spin     Total
       1     H     0.39524  0.39524  0.00000  0.20951
       2     C     3.09264  3.09264  0.00000 -0.18529
       3     C     3.10372  3.10372  0.00000 -0.20743
       4     C     3.10419  3.10419  0.00000 -0.20838
       5     H     0.39658  0.39658  0.00000  0.20683
       6     C     3.10497  3.10497  0.00000 -0.20994
       7     H     0.39471  0.39471  0.00000  0.21059
       8     C     3.08918  3.08918  0.00000 -0.17836
       9     H     0.39233  0.39233  0.00000  0.21534
      10     C     3.05175  3.05175  0.00000 -0.10350
      11     H     0.37955  0.37955  0.00000  0.24090
      12     C     2.72856  2.72856  0.00000  0.54289
      13     C     3.29618  3.29618  0.00000 -0.59236
      14     O     4.26716  4.26716  0.00000 -0.53432
      15     H     0.40423  0.40423  0.00000  0.19154
      16     H     0.39211  0.39211  0.00000  0.21578
      17     H     0.40690  0.40690  0.00000  0.18619

   Total alpha = 32.00000, Total beta = 32.00000, Total charge = -0.00000


*** PSI4 exiting successfully. Buy a developer a beer!
