    -----------------------------------------------------------------------
          Psi4: An Open-Source Ab Initio Electronic Structure Package
                              Psi4 (no tag) Driver

                          Git: Rev {detached?}  

    J. M. Turney, A. C. Simmonett, R. M. Parrish, E. G. Hohenstein,
    F. A. Evangelista, J. T. Fermann, B. J. Mintz, L. A. Burns, J. J. Wilke,
    M. L. Abrams, N. J. Russ, M. L. Leininger, C. L. Janssen, E. T. Seidl,
    W. D. Allen, H. F. Schaefer, R. A. King, E. F. Valeev, C. D. Sherrill,
    and T. D. Crawford, WIREs Comput. Mol. Sci. 2, 556-565 (2012)
    (doi: 10.1002/wcms.93)

                         Additional Contributions by
    A. E. DePrince, M. Saitow, U. Bozkaya, A. Yu. Sokolov
    -----------------------------------------------------------------------


    Psi4 started on: Tue Jul  5 17:12:16 2016

    Process ID:  28505
    PSI4DATADIR: /export131/home/mjharvey/miniconda3/share
    Memory level set to 256.000 MB

  ==> Input File <==

--------------------------------------------------------------------------
set {
	reference rhf
	basis 6-31G*
}


set_num_threads( 1 )
memory 2 gb

molecule MOL {
0 1

H	 -3.457960	 0.166880	 1.449720
O	 -3.367910	 -0.300316	 2.267454
C	 -3.043259	 -1.643282	 2.012310
C	 -1.609705	 -1.833855	 1.529264
H	 -3.184960	 -2.163733	 2.950780
H	 -3.740919	 -2.074362	 1.295219
C	 -1.314720	 -1.174099	 0.179978
H	 -0.935821	 -1.437562	 2.284379
H	 -1.414703	 -2.902721	 1.459510
C	 -2.484036	 -1.287962	 -0.802139
H	 -0.429907	 -1.630592	 -0.254862
H	 -1.080166	 -0.120938	 0.335465
C	 -3.855076	 -0.933457	 -0.214845
H	 -2.288455	 -0.655843	 -1.666443
H	 -2.523429	 -2.308758	 -1.176472
C	 -4.367128	 -1.900755	 0.855957
H	 -3.793951	 0.062656	 0.218561
H	 -4.584969	 -0.867679	 -1.020305
C	 -5.686341	 -1.448714	 1.485855
H	 -3.614335	 -2.003786	 1.636212
H	 -4.502779	 -2.892225	 0.430648
C	 -6.202976	 -2.415778	 2.550534
H	 -5.555304	 -0.463061	 1.927223
H	 -6.437137	 -1.335843	 0.706464
H	 -5.487866	 -2.525080	 3.361024
H	 -7.137459	 -2.066954	 2.979133
H	 -6.379554	 -3.402639	 2.131858

	symmetry c1
}
set optking {
	frozen_dihedral = ("
		14 10 7 4,
		14 10 13 16,
		8 4 3 2,
		10 13 16 20,
		20 16 19 22,
		4 3 2 1
	")
}

ee = energy('scf')
oeprop('DIPOLE', 'QUADRUPOLE', 'MULLIKEN_CHARGES')
f=open( 'psi4out.xyz', 'w' )
f.write( "27  " )
f.write( str(ee) + "\n" )
f.write( MOL.save_string_xyz() )
f.close()
--------------------------------------------------------------------------

  Memory set to   2.000 GiB by Python script.

*** tstart() called on cx1-3-4-2.cx1.hpc.ic.ac.uk
*** at Tue Jul  5 17:12:17 2016


         ---------------------------------------------------------
                                   SCF
            by Justin Turney, Rob Parrish, and Andy Simmonett
                              RHF Reference
                        1 Threads,   2000 MiB Core
         ---------------------------------------------------------

  ==> Geometry <==

    Molecular point group: c1
    Full point group: C1

    Geometry (in Angstrom), charge = 0, multiplicity = 1:

       Center              X                  Y                   Z               Mass       
    ------------   -----------------  -----------------  -----------------  -----------------
           H          0.105232267155     1.590812632544     0.322990026768     1.007825032070
           O          0.195282267155     1.123616632544     1.140724026768    15.994914619560
           C          0.519933267155    -0.219349367456     0.885580026768    12.000000000000
           C          1.953487267155    -0.409922367456     0.402534026768    12.000000000000
           H          0.378232267155    -0.739800367456     1.824050026768     1.007825032070
           H         -0.177726732845    -0.650429367456     0.168489026768     1.007825032070
           C          2.248472267155     0.249833632544    -0.946751973232    12.000000000000
           H          2.627371267155    -0.013629367456     1.157649026768     1.007825032070
           H          2.148489267155    -1.478788367456     0.332780026768     1.007825032070
           C          1.079156267155     0.135970632544    -1.928868973232    12.000000000000
           H          3.133285267155    -0.206659367456    -1.381591973232     1.007825032070
           H          2.483026267155     1.302994632544    -0.791264973232     1.007825032070
           C         -0.291883732845     0.490475632544    -1.341574973232    12.000000000000
           H          1.274737267155     0.768089632544    -2.793172973232     1.007825032070
           H          1.039763267155    -0.884825367456    -2.303201973232     1.007825032070
           C         -0.803935732845    -0.476822367456    -0.270772973232    12.000000000000
           H         -0.230758732845     1.486588632544    -0.908168973232     1.007825032070
           H         -1.021776732845     0.556253632544    -2.147034973232     1.007825032070
           C         -2.123148732845    -0.024781367456     0.359125026768    12.000000000000
           H         -0.051142732845    -0.579853367456     0.509482026768     1.007825032070
           H         -0.939586732845    -1.468292367456    -0.696081973232     1.007825032070
           C         -2.639783732845    -0.991845367456     1.423804026768    12.000000000000
           H         -1.992111732845     0.960871632544     0.800493026768     1.007825032070
           H         -2.873944732845     0.088089632544    -0.420265973232     1.007825032070
           H         -1.924673732845    -1.101147367456     2.234294026768     1.007825032070
           H         -3.574266732845    -0.643021367456     1.852403026768     1.007825032070
           H         -2.816361732845    -1.978706367456     1.005128026768     1.007825032070

  Running in c1 symmetry.

  Rotational constants: A =      0.09246  B =      0.03770  C =      0.03236 [cm^-1]
  Rotational constants: A =   2771.82825  B =   1130.24802  C =    970.27811 [MHz]
  Nuclear repulsion =  545.388884537232684

  Charge       = 0
  Multiplicity = 1
  Electrons    = 74
  Nalpha       = 37
  Nbeta        = 37

  ==> Algorithm <==

  SCF Algorithm Type is DF.
  DIIS enabled.
  MOM disabled.
  Fractional occupation disabled.
  Guess Type is CORE.
  Energy threshold   = 1.00e-06
  Density threshold  = 1.00e-06
  Integral threshold = 0.00e+00

  ==> Primary Basis <==

  Basis Set: 6-31G*
    Number of shells: 90
    Number of basis function: 171
    Number of Cartesian functions: 171
    Spherical Harmonics?: false
    Max angular momentum: 2

  ==> Pre-Iterations <==

   -------------------------------------------------------
    Irrep   Nso     Nmo     Nalpha   Nbeta   Ndocc  Nsocc
   -------------------------------------------------------
     A        171     171       0       0       0       0
   -------------------------------------------------------
    Total     171     171      37      37      37       0
   -------------------------------------------------------

 OEINTS: Overlap, kinetic, potential, dipole, and quadrupole integrals
         stored in file 35.

  ==> Integral Setup <==

  ==> DFJK: Density-Fitted J/K Matrices <==

    J tasked:                  Yes
    K tasked:                  Yes
    wK tasked:                  No
    OpenMP threads:              1
    Integrals threads:           1
    Memory (MB):              1430
    Algorithm:                Core
    Integral Cache:           NONE
    Schwarz Cutoff:          1E-12
    Fitting Condition:       1E-12

   => Auxiliary Basis Set <=

  Basis Set: 
    Number of shells: 378
    Number of basis function: 1179
    Number of Cartesian functions: 1179
    Spherical Harmonics?: false
    Max angular momentum: 3

  Minimum eigenvalue in the overlap matrix is 1.8794321225E-04.
  Using Symmetric Orthogonalization.
  SCF Guess: Core (One-Electron) Hamiltonian.

  ==> Iterations <==

                           Total Energy        Delta E     RMS |[F,P]|

   @DF-RHF iter   1:  -264.31815088769815   -2.64318e+02   6.91934e-02 
   @DF-RHF iter   2:  -188.49682195310629    7.58213e+01   6.50410e-02 DIIS
   @DF-RHF iter   3:  -324.96297815758373   -1.36466e+02   4.05011e-02 DIIS
   @DF-RHF iter   4:  -267.85629620777434    5.71067e+01   6.58818e-02 DIIS
   @DF-RHF iter   5:  -386.28217514468793   -1.18426e+02   6.87443e-03 DIIS
   @DF-RHF iter   6:  -386.92561359469448   -6.43438e-01   2.71944e-03 DIIS
   @DF-RHF iter   7:  -387.03846182999791   -1.12848e-01   6.01885e-04 DIIS
   @DF-RHF iter   8:  -387.04615802413173   -7.69619e-03   2.14465e-04 DIIS
   @DF-RHF iter   9:  -387.04707192696253   -9.13903e-04   6.83668e-05 DIIS
   @DF-RHF iter  10:  -387.04716918607210   -9.72591e-05   2.69411e-05 DIIS
   @DF-RHF iter  11:  -387.04718882212751   -1.96361e-05   7.08981e-06 DIIS
   @DF-RHF iter  12:  -387.04719092230891   -2.10018e-06   2.79647e-06 DIIS
   @DF-RHF iter  13:  -387.04719124337612   -3.21067e-07   8.23923e-07 DIIS

  ==> Post-Iterations <==

    Orbital Energies (a.u.)
    -----------------------

    Doubly Occupied:                                                      

       1A    -20.552593     2A    -11.233321     3A    -11.225112  
       4A    -11.221186     5A    -11.219076     6A    -11.215796  
       7A    -11.207501     8A    -11.190435     9A    -11.142861  
      10A     -1.502443    11A     -1.337663    12A     -1.086761  
      13A     -1.048534    14A     -1.006895    15A     -0.906839  
      16A     -0.875777    17A     -0.827530    18A     -0.761365  
      19A     -0.748706    20A     -0.666333    21A     -0.642823  
      22A     -0.623322    23A     -0.621793    24A     -0.592838  
      25A     -0.579428    26A     -0.566188    27A     -0.547871  
      28A     -0.535430    29A     -0.517183    30A     -0.504540  
      31A     -0.491821    32A     -0.476223    33A     -0.464440  
      34A     -0.460384    35A     -0.452510    36A     -0.426334  
      37A     -0.230912  

    Virtual:                                                              

      38A      0.215543    39A      0.227249    40A      0.248487  
      41A      0.265010    42A      0.274140    43A      0.291844  
      44A      0.294795    45A      0.301421    46A      0.312794  
      47A      0.331843    48A      0.336228    49A      0.345124  
      50A      0.347511    51A      0.353979    52A      0.362993  
      53A      0.381558    54A      0.387089    55A      0.394503  
      56A      0.418477    57A      0.431957    58A      0.455931  
      59A      0.474064    60A      0.487825    61A      0.510685  
      62A      0.588222    63A      0.597702    64A      0.618385  
      65A      0.683618    66A      0.728389    67A      0.745683  
      68A      0.764334    69A      0.779970    70A      0.791007  
      71A      0.807398    72A      0.832984    73A      0.867652  
      74A      0.876673    75A      0.907428    76A      0.916182  
      77A      0.954982    78A      0.965528    79A      0.999592  
      80A      1.011710    81A      1.020242    82A      1.059001  
      83A      1.087041    84A      1.102102    85A      1.136178  
      86A      1.143148    87A      1.146288    88A      1.161140  
      89A      1.167535    90A      1.179838    91A      1.181761  
      92A      1.184446    93A      1.201379    94A      1.213745  
      95A      1.221350    96A      1.235691    97A      1.244672  
      98A      1.256686    99A      1.260278   100A      1.283053  
     101A      1.294194   102A      1.308601   103A      1.362083  
     104A      1.383441   105A      1.404743   106A      1.437957  
     107A      1.505344   108A      1.540345   109A      1.580674  
     110A      1.622807   111A      1.646517   112A      1.689990  
     113A      1.765034   114A      1.791754   115A      1.857017  
     116A      1.891853   117A      1.909352   118A      1.920840  
     119A      1.956203   120A      1.987463   121A      2.030339  
     122A      2.059887   123A      2.077010   124A      2.111372  
     125A      2.132826   126A      2.199070   127A      2.213601  
     128A      2.247330   129A      2.257250   130A      2.294357  
     131A      2.306010   132A      2.315189   133A      2.323407  
     134A      2.357724   135A      2.383045   136A      2.403945  
     137A      2.448271   138A      2.502492   139A      2.529480  
     140A      2.590920   141A      2.624901   142A      2.630772  
     143A      2.645689   144A      2.662922   145A      2.676583  
     146A      2.698459   147A      2.731021   148A      2.738230  
     149A      2.769414   150A      2.773766   151A      2.838486  
     152A      2.896765   153A      2.940399   154A      2.962566  
     155A      3.009713   156A      3.045847   157A      3.093748  
     158A      3.127523   159A      3.148468   160A      3.277423  
     161A      3.380721   162A      4.358347   163A      4.572815  
     164A      4.633849   165A      4.719142   166A      4.850427  
     167A      4.897784   168A      4.940376   169A      5.003771  
     170A      5.131915   171A      5.277161  

    Final Occupation by Irrep:
              A 
    DOCC [    37 ]

  Energy converged.

  @DF-RHF Final Energy:  -387.04719124337612

   => Energetics <=

    Nuclear Repulsion Energy =            545.3888845372326841
    One-Electron Energy =               -1605.4503564585702406
    Two-Electron Energy =                 673.0142806779630291
    DFT Exchange-Correlation Energy =       0.0000000000000000
    Empirical Dispersion Energy =           0.0000000000000000
    PCM Polarization Energy =               0.0000000000000000
    EFP Energy =                            0.0000000000000000
    Total Energy =                       -387.0471912433746411

    Alert: EFP and PCM quantities not currently incorporated into SCF psivars.

Properties will be evaluated at   0.000000,   0.000000,   0.000000 Bohr
  ==> Properties <==


Properties computed using the SCF density matrix

  Nuclear Dipole Moment: (a.u.)
     X:    -2.2604      Y:    -2.7990      Z:    -1.1504

  Electronic Dipole Moment: (a.u.)
     X:     2.3826      Y:     2.5986      Z:     0.4545

  Dipole Moment: (a.u.)
     X:     0.1222      Y:    -0.2004      Z:    -0.6959     Total:     0.7344

  Dipole Moment: (Debye)
     X:     0.3105      Y:    -0.5094      Z:    -1.7688     Total:     1.8667


  Saving occupied orbitals to File 180.

*** tstop() called on cx1-3-4-2.cx1.hpc.ic.ac.uk at Tue Jul  5 17:12:47 2016
Module time:
	user time   =      29.32 seconds =       0.49 minutes
	system time =       0.24 seconds =       0.00 minutes
	total time  =         30 seconds =       0.50 minutes
Total time:
	user time   =      29.32 seconds =       0.49 minutes
	system time =       0.24 seconds =       0.00 minutes
	total time  =         30 seconds =       0.50 minutes


Properties will be evaluated at   0.000000,   0.000000,   0.000000 Bohr

Properties computed using the  density matrix

  Nuclear Dipole Moment: (a.u.)
     X:    -2.2604      Y:    -2.7990      Z:    -1.1504

  Electronic Dipole Moment: (a.u.)
     X:     2.3826      Y:     2.5986      Z:     0.4545

  Dipole Moment: (a.u.)
     X:     0.1222      Y:    -0.2004      Z:    -0.6959     Total:     0.7344

  Dipole Moment: (Debye)
     X:     0.3105      Y:    -0.5094      Z:    -1.7688     Total:     1.8667

  Quadrupole Moment: (Debye Ang)
    XX:   -60.1987     YY:   -59.1965     ZZ:   -63.4775
    XY:    -1.0789     XZ:    -1.2219     YZ:    -3.2957

  Traceless Quadrupole Moment: (Debye Ang)
    XX:     0.7589     YY:     1.7611     ZZ:    -2.5200
    XY:    -1.0789     XZ:    -1.2219     YZ:    -3.2957

  Mulliken Charges: (a.u.)
   Center  Symbol    Alpha    Beta     Spin     Total
       1     H     0.26592  0.26592  0.00000  0.46816
       2     O     4.39173  4.39173  0.00000 -0.78345
       3     C     2.94213  2.94213  0.00000  0.11573
       4     C     3.17578  3.17578  0.00000 -0.35157
       5     H     0.43149  0.43149  0.00000  0.13702
       6     H     0.36802  0.36802  0.00000  0.26397
       7     C     3.16484  3.16484  0.00000 -0.32968
       8     H     0.40589  0.40589  0.00000  0.18821
       9     H     0.42340  0.42340  0.00000  0.15319
      10     C     3.15780  3.15780  0.00000 -0.31560
      11     H     0.41441  0.41441  0.00000  0.17118
      12     H     0.41932  0.41932  0.00000  0.16135
      13     C     3.19491  3.19491  0.00000 -0.38982
      14     H     0.41500  0.41500  0.00000  0.17001
      15     H     0.41834  0.41834  0.00000  0.16331
      16     C     3.19051  3.19051  0.00000 -0.38101
      17     H     0.43844  0.43844  0.00000  0.12311
      18     H     0.40333  0.40333  0.00000  0.19334
      19     C     3.14484  3.14484  0.00000 -0.28967
      20     H     0.46317  0.46317  0.00000  0.07365
      21     H     0.43877  0.43877  0.00000  0.12247
      22     C     3.24686  3.24686  0.00000 -0.49372
      23     H     0.40802  0.40802  0.00000  0.18396
      24     H     0.42056  0.42056  0.00000  0.15889
      25     H     0.41819  0.41819  0.00000  0.16361
      26     H     0.41696  0.41696  0.00000  0.16608
      27     H     0.42136  0.42136  0.00000  0.15728

   Total alpha = 37.00000, Total beta = 37.00000, Total charge =  0.00000


*** PSI4 exiting successfully. Buy a developer a beer!
