    -----------------------------------------------------------------------
          Psi4: An Open-Source Ab Initio Electronic Structure Package
                              Psi4 (no tag) Driver

                          Git: Rev {detached?}  

    J. M. Turney, A. C. Simmonett, R. M. Parrish, E. G. Hohenstein,
    F. A. Evangelista, J. T. Fermann, B. J. Mintz, L. A. Burns, J. J. Wilke,
    M. L. Abrams, N. J. Russ, M. L. Leininger, C. L. Janssen, E. T. Seidl,
    W. D. Allen, H. F. Schaefer, R. A. King, E. F. Valeev, C. D. Sherrill,
    and T. D. Crawford, WIREs Comput. Mol. Sci. 2, 556-565 (2012)
    (doi: 10.1002/wcms.93)

                         Additional Contributions by
    A. E. DePrince, M. Saitow, U. Bozkaya, A. Yu. Sokolov
    -----------------------------------------------------------------------


    Psi4 started on: Tue Jul  5 16:30:25 2016

    Process ID:  16484
    PSI4DATADIR: /export131/home/mjharvey/miniconda3/share
    Memory level set to 256.000 MB

  ==> Input File <==

--------------------------------------------------------------------------
set {
	reference rhf
	basis 6-31G*
}


set_num_threads( 1 )
memory 2 gb

molecule MOL {
0 1

O	 -0.682937	 1.318834	 -0.186099
C	 -0.860635	 0.152188	 -0.042321
C	 -2.173363	 -0.477127	 0.338347
O	 0.083258	 -0.765189	 -0.202595
H	 -2.477673	 -1.180929	 -0.427595
H	 -2.923125	 0.290956	 0.455536
H	 -2.058825	 -1.029004	 1.264191
C	 1.391937	 -0.334737	 -0.569838
C	 1.353447	 0.980499	 -1.325696
H	 1.869512	 -1.108062	 -1.152102
H	 1.915100	 -0.226497	 0.369355
H	 2.365520	 1.319577	 -1.524352
H	 0.841087	 0.866440	 -2.272715
H	 0.847660	 1.741563	 -0.741422

	symmetry c1
}
set optking {
	frozen_dihedral = ("
		8 4 2 1
	")
}

ee = energy('scf')
oeprop('DIPOLE', 'QUADRUPOLE', 'MULLIKEN_CHARGES')
f=open( 'psi4out.xyz', 'w' )
f.write( "14  " )
f.write( str(ee) + "\n" )
f.write( MOL.save_string_xyz() )
f.close()
--------------------------------------------------------------------------

  Memory set to   2.000 GiB by Python script.

*** tstart() called on cx1-1-2-4.cx1.hpc.ic.ac.uk
*** at Tue Jul  5 16:30:26 2016


         ---------------------------------------------------------
                                   SCF
            by Justin Turney, Rob Parrish, and Andy Simmonett
                              RHF Reference
                        1 Threads,   2000 MiB Core
         ---------------------------------------------------------

  ==> Geometry <==

    Molecular point group: c1
    Full point group: C1

    Geometry (in Angstrom), charge = 0, multiplicity = 1:

       Center              X                  Y                   Z               Mass       
    ------------   -----------------  -----------------  -----------------  -----------------
           O         -0.539011854648     1.166825713606     0.148609029977    15.994914619560
           C         -0.716709854648     0.000179713606     0.292387029977    12.000000000000
           C         -2.029437854648    -0.629135286394     0.673055029977    12.000000000000
           O          0.227183145352    -0.917197286394     0.132113029977    15.994914619560
           H         -2.333747854648    -1.332937286394    -0.092886970023     1.007825032070
           H         -2.779199854648     0.138947713606     0.790244029977     1.007825032070
           H         -1.914899854648    -1.181012286394     1.598899029977     1.007825032070
           C          1.535862145352    -0.486745286394    -0.235129970023    12.000000000000
           C          1.497372145352     0.828490713606    -0.990987970023    12.000000000000
           H          2.013437145352    -1.260070286394    -0.817393970023     1.007825032070
           H          2.059025145352    -0.378505286394     0.704063029977     1.007825032070
           H          2.509445145352     1.167568713606    -1.189643970023     1.007825032070
           H          0.985012145352     0.714431713606    -1.938006970023     1.007825032070
           H          0.991585145352     1.589554713606    -0.406713970023     1.007825032070

  Running in c1 symmetry.

  Rotational constants: A =      0.25302  B =      0.09343  C =      0.07257 [cm^-1]
  Rotational constants: A =   7585.29345  B =   2801.00073  C =   2175.48659 [MHz]
  Nuclear repulsion =  255.014627834490796

  Charge       = 0
  Multiplicity = 1
  Electrons    = 48
  Nalpha       = 24
  Nbeta        = 24

  ==> Algorithm <==

  SCF Algorithm Type is DF.
  DIIS enabled.
  MOM disabled.
  Fractional occupation disabled.
  Guess Type is CORE.
  Energy threshold   = 1.00e-06
  Density threshold  = 1.00e-06
  Integral threshold = 0.00e+00

  ==> Primary Basis <==

  Basis Set: 6-31G*
    Number of shells: 52
    Number of basis function: 106
    Number of Cartesian functions: 106
    Spherical Harmonics?: false
    Max angular momentum: 2

  ==> Pre-Iterations <==

   -------------------------------------------------------
    Irrep   Nso     Nmo     Nalpha   Nbeta   Ndocc  Nsocc
   -------------------------------------------------------
     A        106     106       0       0       0       0
   -------------------------------------------------------
    Total     106     106      24      24      24       0
   -------------------------------------------------------

 OEINTS: Overlap, kinetic, potential, dipole, and quadrupole integrals
         stored in file 35.

  ==> Integral Setup <==

  ==> DFJK: Density-Fitted J/K Matrices <==

    J tasked:                  Yes
    K tasked:                  Yes
    wK tasked:                  No
    OpenMP threads:              1
    Integrals threads:           1
    Memory (MB):              1430
    Algorithm:                Core
    Integral Cache:           NONE
    Schwarz Cutoff:          1E-12
    Fitting Condition:       1E-12

   => Auxiliary Basis Set <=

  Basis Set: 
    Number of shells: 216
    Number of basis function: 686
    Number of Cartesian functions: 686
    Spherical Harmonics?: false
    Max angular momentum: 3

  Minimum eigenvalue in the overlap matrix is 3.8456668330E-03.
  Using Symmetric Orthogonalization.
  SCF Guess: Core (One-Electron) Hamiltonian.

  ==> Iterations <==

                           Total Energy        Delta E     RMS |[F,P]|

   @DF-RHF iter   1:  -238.81260474353809   -2.38813e+02   8.36127e-02 
   @DF-RHF iter   2:  -230.15476890995438    8.65784e+00   6.34250e-02 DIIS
   @DF-RHF iter   3:  -276.22141917307891   -4.60667e+01   5.62298e-02 DIIS
   @DF-RHF iter   4:  -302.36729584546146   -2.61459e+01   1.81688e-02 DIIS
   @DF-RHF iter   5:  -304.08786838459599   -1.72057e+00   1.62161e-02 DIIS
   @DF-RHF iter   6:  -305.80207859167541   -1.71421e+00   2.00351e-03 DIIS
   @DF-RHF iter   7:  -305.83429201808252   -3.22134e-02   6.68224e-04 DIIS
   @DF-RHF iter   8:  -305.83661505352489   -2.32304e-03   3.26060e-04 DIIS
   @DF-RHF iter   9:  -305.83719110169540   -5.76048e-04   1.11329e-04 DIIS
   @DF-RHF iter  10:  -305.83727747060146   -8.63689e-05   4.80562e-05 DIIS
   @DF-RHF iter  11:  -305.83729520760647   -1.77370e-05   1.28968e-05 DIIS
   @DF-RHF iter  12:  -305.83729654867699   -1.34107e-06   3.44053e-06 DIIS
   @DF-RHF iter  13:  -305.83729666366918   -1.14992e-07   1.19012e-06 DIIS
   @DF-RHF iter  14:  -305.83729668063262   -1.69634e-08   4.99000e-07 DIIS

  ==> Post-Iterations <==

    Orbital Energies (a.u.)
    -----------------------

    Doubly Occupied:                                                      

       1A    -20.603326     2A    -20.541508     3A    -11.381712  
       4A    -11.284376     5A    -11.235052     6A    -11.190355  
       7A     -1.473412     8A     -1.368777     9A     -1.055283  
      10A     -0.991126    11A     -0.884206    12A     -0.762738  
      13A     -0.703208    14A     -0.688371    15A     -0.667532  
      16A     -0.609210    17A     -0.587402    18A     -0.567479  
      19A     -0.543221    20A     -0.539246    21A     -0.515764  
      22A     -0.493925    23A     -0.446668    24A     -0.404042  

    Virtual:                                                              

      25A      0.193126    26A      0.247073    27A      0.262677  
      28A      0.294261    29A      0.304184    30A      0.315734  
      31A      0.330655    32A      0.336492    33A      0.348089  
      34A      0.382102    35A      0.406071    36A      0.439440  
      37A      0.505315    38A      0.563157    39A      0.714383  
      40A      0.718469    41A      0.750444    42A      0.755421  
      43A      0.790555    44A      0.815259    45A      0.815932  
      46A      0.860899    47A      0.915869    48A      0.968183  
      49A      0.971607    50A      1.001259    51A      1.072325  
      52A      1.114229    53A      1.128309    54A      1.149767  
      55A      1.167932    56A      1.184381    57A      1.193883  
      58A      1.209450    59A      1.229384    60A      1.252630  
      61A      1.280332    62A      1.299948    63A      1.373211  
      64A      1.400388    65A      1.489114    66A      1.556925  
      67A      1.585447    68A      1.660484    69A      1.738273  
      70A      1.792195    71A      1.795435    72A      1.861609  
      73A      1.902029    74A      1.944993    75A      2.050707  
      76A      2.086699    77A      2.130799    78A      2.202802  
      79A      2.215281    80A      2.244506    81A      2.278106  
      82A      2.298264    83A      2.373626    84A      2.414222  
      85A      2.483360    86A      2.544379    87A      2.568361  
      88A      2.609117    89A      2.677834    90A      2.699230  
      91A      2.740701    92A      2.774545    93A      2.813349  
      94A      2.899975    95A      2.996763    96A      3.059960  
      97A      3.175223    98A      3.366072    99A      3.411720  
     100A      3.558578   101A      4.438775   102A      4.529074  
     103A      4.616735   104A      4.689842   105A      4.821033  
     106A      4.931924  

    Final Occupation by Irrep:
              A 
    DOCC [    24 ]

  Energy converged.

  @DF-RHF Final Energy:  -305.83729668063262

   => Energetics <=

    Nuclear Repulsion Energy =            255.0146278344907955
    One-Electron Energy =                -922.6280763692935807
    Two-Electron Energy =                 361.7761518541702799
    DFT Exchange-Correlation Energy =       0.0000000000000000
    Empirical Dispersion Energy =           0.0000000000000000
    PCM Polarization Energy =               0.0000000000000000
    EFP Energy =                            0.0000000000000000
    Total Energy =                       -305.8372966806324484

    Alert: EFP and PCM quantities not currently incorporated into SCF psivars.

Properties will be evaluated at   0.000000,   0.000000,   0.000000 Bohr
  ==> Properties <==


Properties computed using the SCF density matrix

  Nuclear Dipole Moment: (a.u.)
     X:     1.4334      Y:    -0.5069      Z:    -1.2656

  Electronic Dipole Moment: (a.u.)
     X:    -1.4373      Y:    -0.1707      Z:     1.3640

  Dipole Moment: (a.u.)
     X:    -0.0038      Y:    -0.6776      Z:     0.0985     Total:     0.6847

  Dipole Moment: (Debye)
     X:    -0.0097      Y:    -1.7223      Z:     0.2503     Total:     1.7404


  Saving occupied orbitals to File 180.

*** tstop() called on cx1-1-2-4.cx1.hpc.ic.ac.uk at Tue Jul  5 16:30:31 2016
Module time:
	user time   =       5.53 seconds =       0.09 minutes
	system time =       0.04 seconds =       0.00 minutes
	total time  =          5 seconds =       0.08 minutes
Total time:
	user time   =       5.53 seconds =       0.09 minutes
	system time =       0.04 seconds =       0.00 minutes
	total time  =          5 seconds =       0.08 minutes


Properties will be evaluated at   0.000000,   0.000000,   0.000000 Bohr

Properties computed using the  density matrix

  Nuclear Dipole Moment: (a.u.)
     X:     1.4334      Y:    -0.5069      Z:    -1.2656

  Electronic Dipole Moment: (a.u.)
     X:    -1.4373      Y:    -0.1707      Z:     1.3640

  Dipole Moment: (a.u.)
     X:    -0.0038      Y:    -0.6776      Z:     0.0985     Total:     0.6847

  Dipole Moment: (Debye)
     X:    -0.0097      Y:    -1.7223      Z:     0.2503     Total:     1.7404

  Quadrupole Moment: (Debye Ang)
    XX:   -32.0755     YY:   -40.9242     ZZ:   -35.6402
    XY:     1.4374     XZ:    -0.7383     YZ:     0.1884

  Traceless Quadrupole Moment: (Debye Ang)
    XX:     4.1378     YY:    -4.7109     ZZ:     0.5731
    XY:     1.4374     XZ:    -0.7383     YZ:     0.1884

  Mulliken Charges: (a.u.)
   Center  Symbol    Alpha    Beta     Spin     Total
       1     O     4.29019  4.29019  0.00000 -0.58039
       2     C     2.61081  2.61081  0.00000  0.77838
       3     C     3.28116  3.28116  0.00000 -0.56232
       4     O     4.31092  4.31092  0.00000 -0.62184
       5     H     0.39974  0.39974  0.00000  0.20051
       6     H     0.39698  0.39698  0.00000  0.20603
       7     H     0.39958  0.39958  0.00000  0.20083
       8     C     3.00063  3.00063  0.00000 -0.00126
       9     C     3.27644  3.27644  0.00000 -0.55288
      10     H     0.40877  0.40877  0.00000  0.18246
      11     H     0.41525  0.41525  0.00000  0.16950
      12     H     0.42712  0.42712  0.00000  0.14576
      13     H     0.42060  0.42060  0.00000  0.15879
      14     H     0.36179  0.36179  0.00000  0.27641

   Total alpha = 24.00000, Total beta = 24.00000, Total charge = -0.00000


*** PSI4 exiting successfully. Buy a developer a beer!
