    -----------------------------------------------------------------------
          Psi4: An Open-Source Ab Initio Electronic Structure Package
                              Psi4 (no tag) Driver

                          Git: Rev {detached?}  

    J. M. Turney, A. C. Simmonett, R. M. Parrish, E. G. Hohenstein,
    F. A. Evangelista, J. T. Fermann, B. J. Mintz, L. A. Burns, J. J. Wilke,
    M. L. Abrams, N. J. Russ, M. L. Leininger, C. L. Janssen, E. T. Seidl,
    W. D. Allen, H. F. Schaefer, R. A. King, E. F. Valeev, C. D. Sherrill,
    and T. D. Crawford, WIREs Comput. Mol. Sci. 2, 556-565 (2012)
    (doi: 10.1002/wcms.93)

                         Additional Contributions by
    A. E. DePrince, M. Saitow, U. Bozkaya, A. Yu. Sokolov
    -----------------------------------------------------------------------


    Psi4 started on: Tue Jul  5 16:44:26 2016

    Process ID:   4613
    PSI4DATADIR: /export131/home/mjharvey/miniconda3/share
    Memory level set to 256.000 MB

  ==> Input File <==

--------------------------------------------------------------------------
set {
	reference rhf
	basis 6-31G*
}


set_num_threads( 1 )
memory 2 gb

molecule MOL {
0 1

O	 -1.276010	 1.052711	 -0.768302
C	 -1.204840	 0.067374	 -0.106123
C	 -2.388195	 -0.672128	 0.458071
O	 -0.067104	 -0.527208	 0.221609
H	 -2.388023	 -1.694060	 0.097175
H	 -3.300579	 -0.174919	 0.164318
H	 -2.315377	 -0.706351	 1.539059
C	 0.011707	 -1.245549	 1.460844
C	 -1.169141	 -2.200099	 1.465250
C	 -0.009443	 -0.266579	 2.624379
H	 0.939502	 -1.798436	 1.465380
H	 -1.124420	 -2.868440	 0.612861
H	 -1.162892	 -2.798196	 2.370553
H	 -2.104730	 -1.652876	 1.421954
H	 0.026734	 -0.805254	 3.565940
H	 0.844173	 0.397930	 2.582613
H	 -0.918284	 0.326396	 2.604481

	symmetry c1
}
set optking {
	frozen_dihedral = ("
		11 8 4 2
	")
}

ee = energy('scf')
oeprop('DIPOLE', 'QUADRUPOLE', 'MULLIKEN_CHARGES')
f=open( 'psi4out.xyz', 'w' )
f.write( "17  " )
f.write( str(ee) + "\n" )
f.write( MOL.save_string_xyz() )
f.close()
--------------------------------------------------------------------------

  Memory set to   2.000 GiB by Python script.

*** tstart() called on cx1-1-3-4.cx1.hpc.ic.ac.uk
*** at Tue Jul  5 16:44:27 2016


         ---------------------------------------------------------
                                   SCF
            by Justin Turney, Rob Parrish, and Andy Simmonett
                              RHF Reference
                        1 Threads,   2000 MiB Core
         ---------------------------------------------------------

  ==> Geometry <==

    Molecular point group: c1
    Full point group: C1

    Geometry (in Angstrom), charge = 0, multiplicity = 1:

       Center              X                  Y                   Z               Mass       
    ------------   -----------------  -----------------  -----------------  -----------------
           O         -0.392326751540     1.594160747664    -1.538744624387    15.994914619560
           C         -0.321156751540     0.608823747664    -0.876565624387    12.000000000000
           C         -1.504511751540    -0.130678252336    -0.312371624387    12.000000000000
           O          0.816579248460     0.014241747664    -0.548833624387    15.994914619560
           H         -1.504339751540    -1.152610252336    -0.673267624387     1.007825032070
           H         -2.416895751540     0.366530747664    -0.606124624387     1.007825032070
           H         -1.431693751540    -0.164901252336     0.768616375613     1.007825032070
           C          0.895390248460    -0.704099252336     0.690401375613    12.000000000000
           C         -0.285457751540    -1.658649252336     0.694807375613    12.000000000000
           C          0.874240248460     0.274870747664     1.853936375613    12.000000000000
           H          1.823185248460    -1.256986252336     0.694937375613     1.007825032070
           H         -0.240736751540    -2.326990252336    -0.157581624387     1.007825032070
           H         -0.279208751540    -2.256746252336     1.600110375613     1.007825032070
           H         -1.221046751540    -1.111426252336     0.651511375613     1.007825032070
           H          0.910417248460    -0.263804252336     2.795497375613     1.007825032070
           H          1.727856248460     0.939379747664     1.812170375613     1.007825032070
           H         -0.034600751540     0.867845747664     1.834038375613     1.007825032070

  Running in c1 symmetry.

  Rotational constants: A =      0.14174  B =      0.07488  C =      0.06220 [cm^-1]
  Rotational constants: A =   4249.17012  B =   2244.70321  C =   1864.79184 [MHz]
  Nuclear repulsion =  339.075200368275546

  Charge       = 0
  Multiplicity = 1
  Electrons    = 56
  Nalpha       = 28
  Nbeta        = 28

  ==> Algorithm <==

  SCF Algorithm Type is DF.
  DIIS enabled.
  MOM disabled.
  Fractional occupation disabled.
  Guess Type is CORE.
  Energy threshold   = 1.00e-06
  Density threshold  = 1.00e-06
  Integral threshold = 0.00e+00

  ==> Primary Basis <==

  Basis Set: 6-31G*
    Number of shells: 62
    Number of basis function: 125
    Number of Cartesian functions: 125
    Spherical Harmonics?: false
    Max angular momentum: 2

  ==> Pre-Iterations <==

   -------------------------------------------------------
    Irrep   Nso     Nmo     Nalpha   Nbeta   Ndocc  Nsocc
   -------------------------------------------------------
     A        125     125       0       0       0       0
   -------------------------------------------------------
    Total     125     125      28      28      28       0
   -------------------------------------------------------

 OEINTS: Overlap, kinetic, potential, dipole, and quadrupole integrals
         stored in file 35.

  ==> Integral Setup <==

  ==> DFJK: Density-Fitted J/K Matrices <==

    J tasked:                  Yes
    K tasked:                  Yes
    wK tasked:                  No
    OpenMP threads:              1
    Integrals threads:           1
    Memory (MB):              1430
    Algorithm:                Core
    Integral Cache:           NONE
    Schwarz Cutoff:          1E-12
    Fitting Condition:       1E-12

   => Auxiliary Basis Set <=

  Basis Set: 
    Number of shells: 258
    Number of basis function: 817
    Number of Cartesian functions: 817
    Spherical Harmonics?: false
    Max angular momentum: 3

  Minimum eigenvalue in the overlap matrix is 2.8472111235E-03.
  Using Symmetric Orthogonalization.
  SCF Guess: Core (One-Electron) Hamiltonian.

  ==> Iterations <==

                           Total Energy        Delta E     RMS |[F,P]|

   @DF-RHF iter   1:  -264.76095229878490   -2.64761e+02   7.39223e-02 
   @DF-RHF iter   2:  -221.06550267347529    4.36954e+01   6.88582e-02 DIIS
   @DF-RHF iter   3:  -296.44612810840863   -7.53806e+01   5.03615e-02 DIIS
   @DF-RHF iter   4:  -308.26165216378467   -1.18155e+01   4.98155e-02 DIIS
   @DF-RHF iter   5:  -341.16220920259116   -3.29006e+01   1.96336e-02 DIIS
   @DF-RHF iter   6:  -344.52088437581767   -3.35868e+00   4.69578e-03 DIIS
   @DF-RHF iter   7:  -344.67039968073595   -1.49515e-01   1.89796e-03 DIIS
   @DF-RHF iter   8:  -344.69740159191258   -2.70019e-02   6.21147e-04 DIIS
   @DF-RHF iter   9:  -344.70065136367475   -3.24977e-03   3.00115e-04 DIIS
   @DF-RHF iter  10:  -344.70152854280252   -8.77179e-04   1.00549e-04 DIIS
   @DF-RHF iter  11:  -344.70164598092720   -1.17438e-04   2.93448e-05 DIIS
   @DF-RHF iter  12:  -344.70165887680332   -1.28959e-05   1.11919e-05 DIIS
   @DF-RHF iter  13:  -344.70166025557285   -1.37877e-06   3.67604e-06 DIIS
   @DF-RHF iter  14:  -344.70166054277422   -2.87201e-07   1.78101e-06 DIIS
   @DF-RHF iter  15:  -344.70166060833424   -6.55600e-08   5.18444e-07 DIIS

  ==> Post-Iterations <==

    Orbital Energies (a.u.)
    -----------------------

    Doubly Occupied:                                                      

       1A    -20.598025     2A    -20.551057     3A    -11.384416  
       4A    -11.307477     5A    -11.235811     6A    -11.234902  
       7A    -11.190569     8A     -1.467964     9A     -1.372273  
      10A     -1.120766    11A     -1.061035    12A     -0.954309  
      13A     -0.862974    14A     -0.799955    15A     -0.718954  
      16A     -0.696460    17A     -0.670585    18A     -0.644991  
      19A     -0.626702    20A     -0.605835    21A     -0.579207  
      22A     -0.560614    23A     -0.544956    24A     -0.503632  
      25A     -0.487469    26A     -0.451909    27A     -0.446161  
      28A     -0.396660  

    Virtual:                                                              

      29A      0.179926    30A      0.204034    31A      0.239877  
      32A      0.268563    33A      0.286953    34A      0.289211  
      35A      0.310388    36A      0.320524    37A      0.329522  
      38A      0.335829    39A      0.351183    40A      0.387365  
      41A      0.410390    42A      0.441681    43A      0.481264  
      44A      0.497663    45A      0.597471    46A      0.701213  
      47A      0.706877    48A      0.734587    49A      0.750825  
      50A      0.781231    51A      0.798722    52A      0.831987  
      53A      0.885892    54A      0.892646    55A      0.902219  
      56A      0.925104    57A      0.961625    58A      0.974757  
      59A      1.012887    60A      1.062547    61A      1.096841  
      62A      1.107636    63A      1.118848    64A      1.142610  
      65A      1.161961    66A      1.174463    67A      1.187592  
      68A      1.215753    69A      1.224121    70A      1.243686  
      71A      1.288770    72A      1.294555    73A      1.320891  
      74A      1.358586    75A      1.373287    76A      1.392560  
      77A      1.451075    78A      1.552130    79A      1.600266  
      80A      1.641306    81A      1.696048    82A      1.721115  
      83A      1.812832    84A      1.875023    85A      1.943143  
      86A      1.962141    87A      1.992927    88A      2.050028  
      89A      2.087327    90A      2.102020    91A      2.125592  
      92A      2.148948    93A      2.193896    94A      2.208476  
      95A      2.259258    96A      2.291823    97A      2.329101  
      98A      2.361222    99A      2.452655   100A      2.462298  
     101A      2.505575   102A      2.538493   103A      2.591872  
     104A      2.600879   105A      2.621207   106A      2.707370  
     107A      2.758042   108A      2.769140   109A      2.832673  
     110A      2.880880   111A      2.909778   112A      3.037254  
     113A      3.085420   114A      3.115974   115A      3.199124  
     116A      3.296408   117A      3.403893   118A      3.567059  
     119A      4.406613   120A      4.588498   121A      4.673707  
     122A      4.746259   123A      4.783883   124A      4.968172  
     125A      5.012922  

    Final Occupation by Irrep:
              A 
    DOCC [    28 ]

  Energy converged.

  @DF-RHF Final Energy:  -344.70166060833424

   => Energetics <=

    Nuclear Repulsion Energy =            339.0752003682755458
    One-Electron Energy =               -1141.4023515526819210
    Two-Electron Energy =                 457.6254905760725933
    DFT Exchange-Correlation Energy =       0.0000000000000000
    Empirical Dispersion Energy =           0.0000000000000000
    PCM Polarization Energy =               0.0000000000000000
    EFP Energy =                            0.0000000000000000
    Total Energy =                       -344.7016606083337820

    Alert: EFP and PCM quantities not currently incorporated into SCF psivars.

Properties will be evaluated at   0.000000,   0.000000,   0.000000 Bohr
  ==> Properties <==


Properties computed using the SCF density matrix

  Nuclear Dipole Moment: (a.u.)
     X:    -2.4983      Y:    -5.9543      Z:     8.1646

  Electronic Dipole Moment: (a.u.)
     X:     2.1626      Y:     4.8232      Z:    -6.8588

  Dipole Moment: (a.u.)
     X:    -0.3356      Y:    -1.1311      Z:     1.3058     Total:     1.7599

  Dipole Moment: (Debye)
     X:    -0.8530      Y:    -2.8749      Z:     3.3190     Total:     4.4732


  Saving occupied orbitals to File 180.

*** tstop() called on cx1-1-3-4.cx1.hpc.ic.ac.uk at Tue Jul  5 16:44:38 2016
Module time:
	user time   =      10.75 seconds =       0.18 minutes
	system time =       0.07 seconds =       0.00 minutes
	total time  =         11 seconds =       0.18 minutes
Total time:
	user time   =      10.75 seconds =       0.18 minutes
	system time =       0.07 seconds =       0.00 minutes
	total time  =         11 seconds =       0.18 minutes


Properties will be evaluated at   0.000000,   0.000000,   0.000000 Bohr

Properties computed using the  density matrix

  Nuclear Dipole Moment: (a.u.)
     X:    -2.4983      Y:    -5.9543      Z:     8.1646

  Electronic Dipole Moment: (a.u.)
     X:     2.1626      Y:     4.8232      Z:    -6.8588

  Dipole Moment: (a.u.)
     X:    -0.3356      Y:    -1.1311      Z:     1.3058     Total:     1.7599

  Dipole Moment: (Debye)
     X:    -0.8530      Y:    -2.8749      Z:     3.3190     Total:     4.4732

  Quadrupole Moment: (Debye Ang)
    XX:   -41.9106     YY:   -48.7625     ZZ:   -46.3350
    XY:     0.6368     XZ:     1.4024     YZ:     5.2329

  Traceless Quadrupole Moment: (Debye Ang)
    XX:     3.7588     YY:    -3.0931     ZZ:    -0.6657
    XY:     0.6368     XZ:     1.4024     YZ:     5.2329

  Mulliken Charges: (a.u.)
   Center  Symbol    Alpha    Beta     Spin     Total
       1     O     4.26708  4.26708  0.00000 -0.53417
       2     C     2.58752  2.58752  0.00000  0.82496
       3     C     3.35399  3.35399  0.00000 -0.70798
       4     O     4.30832  4.30832  0.00000 -0.61665
       5     H     0.38146  0.38146  0.00000  0.23708
       6     H     0.39091  0.39091  0.00000  0.21817
       7     H     0.38831  0.38831  0.00000  0.22338
       8     C     2.94290  2.94290  0.00000  0.11420
       9     C     3.29471  3.29471  0.00000 -0.58942
      10     C     3.25019  3.25019  0.00000 -0.50038
      11     H     0.39586  0.39586  0.00000  0.20828
      12     H     0.40892  0.40892  0.00000  0.18217
      13     H     0.42259  0.42259  0.00000  0.15482
      14     H     0.37796  0.37796  0.00000  0.24407
      15     H     0.41184  0.41184  0.00000  0.17632
      16     H     0.40024  0.40024  0.00000  0.19952
      17     H     0.41718  0.41718  0.00000  0.16563

   Total alpha = 28.00000, Total beta = 28.00000, Total charge = -0.00000


*** PSI4 exiting successfully. Buy a developer a beer!
