    -----------------------------------------------------------------------
          Psi4: An Open-Source Ab Initio Electronic Structure Package
                              Psi4 (no tag) Driver

                          Git: Rev {detached?}  

    J. M. Turney, A. C. Simmonett, R. M. Parrish, E. G. Hohenstein,
    F. A. Evangelista, J. T. Fermann, B. J. Mintz, L. A. Burns, J. J. Wilke,
    M. L. Abrams, N. J. Russ, M. L. Leininger, C. L. Janssen, E. T. Seidl,
    W. D. Allen, H. F. Schaefer, R. A. King, E. F. Valeev, C. D. Sherrill,
    and T. D. Crawford, WIREs Comput. Mol. Sci. 2, 556-565 (2012)
    (doi: 10.1002/wcms.93)

                         Additional Contributions by
    A. E. DePrince, M. Saitow, U. Bozkaya, A. Yu. Sokolov
    -----------------------------------------------------------------------


    Psi4 started on: Tue Jul  5 17:01:15 2016

    Process ID:  13262
    PSI4DATADIR: /export131/home/mjharvey/miniconda3/share
    Memory level set to 256.000 MB

  ==> Input File <==

--------------------------------------------------------------------------
set {
	reference rhf
	basis 6-31G*
}


set_num_threads( 1 )
memory 2 gb

molecule MOL {
0 1

O	 -2.042549	 -1.228399	 -0.269030
C	 -1.653912	 -0.146171	 0.050137
C	 -0.332303	 0.024011	 0.778412
C	 -2.438579	 1.106236	 -0.272369
C	 -0.557903	 0.231896	 2.284321
H	 0.306351	 -0.839763	 0.615939
H	 0.162908	 0.894377	 0.362296
C	 -1.228168	 1.569808	 2.600177
H	 0.393496	 0.174668	 2.810294
H	 -1.169784	 -0.583436	 2.658456
C	 -2.447285	 1.842582	 1.720089
H	 -1.525754	 1.587109	 3.646393
H	 -0.504051	 2.371247	 2.474005
H	 -3.204971	 1.075017	 1.849735
H	 -2.174629	 1.863620	 0.669061
H	 -2.899982	 2.798413	 1.963972
H	 -3.277823	 0.863061	 -0.908988
H	 -1.806773	 1.843019	 -0.759671
H	 -2.802853	 1.554979	 0.648059

	symmetry c1
}
set optking {
	frozen_dihedral = ("
		11 8 5 9,
		9 5 3 2
	")
}

ee = energy('scf')
oeprop('DIPOLE', 'QUADRUPOLE', 'MULLIKEN_CHARGES')
f=open( 'psi4out.xyz', 'w' )
f.write( "19  " )
f.write( str(ee) + "\n" )
f.write( MOL.save_string_xyz() )
f.close()
--------------------------------------------------------------------------

  Memory set to   2.000 GiB by Python script.

*** tstart() called on cx1-1-2-2.cx1.hpc.ic.ac.uk
*** at Tue Jul  5 17:01:15 2016


         ---------------------------------------------------------
                                   SCF
            by Justin Turney, Rob Parrish, and Andy Simmonett
                              RHF Reference
                        1 Threads,   2000 MiB Core
         ---------------------------------------------------------

  ==> Geometry <==

    Molecular point group: c1
    Full point group: C1

    Geometry (in Angstrom), charge = 0, multiplicity = 1:

       Center              X                  Y                   Z               Mass       
    ------------   -----------------  -----------------  -----------------  -----------------
           O         -0.491757783304    -1.723968423955    -1.245973076669    15.994914619560
           C         -0.103120783304    -0.641740423955    -0.926806076669    12.000000000000
           C          1.218488216696    -0.471558423955    -0.198531076669    12.000000000000
           C         -0.887787783304     0.610666576045    -1.249312076669    12.000000000000
           C          0.992888216696    -0.263673423955     1.307377923331    12.000000000000
           H          1.857142216696    -1.335332423955    -0.361004076669     1.007825032070
           H          1.713699216696     0.398807576045    -0.614647076669     1.007825032070
           C          0.322623216696     1.074238576045     1.623233923331    12.000000000000
           H          1.944287216696    -0.320901423955     1.833350923331     1.007825032070
           H          0.381007216696    -1.079005423955     1.681512923331     1.007825032070
           C         -0.896493783304     1.347012576045     0.743145923331    12.000000000000
           H          0.025037216696     1.091539576045     2.669449923331     1.007825032070
           H          1.046740216696     1.875677576045     1.497061923331     1.007825032070
           H         -1.654179783304     0.579447576045     0.872791923331     1.007825032070
           H         -0.623837783304     1.368050576045    -0.307882076669     1.007825032070
           H         -1.349190783304     2.302843576045     0.987028923331     1.007825032070
           H         -1.727031783304     0.367491576045    -1.885931076669     1.007825032070
           H         -0.255981783304     1.347449576045    -1.736614076669     1.007825032070
           H         -1.252061783304     1.059409576045    -0.328884076669     1.007825032070

  Running in c1 symmetry.

  Rotational constants: A =      0.12721  B =      0.07682  C =      0.05555 [cm^-1]
  Rotational constants: A =   3813.74620  B =   2302.99024  C =   1665.29616 [MHz]
  Nuclear repulsion =  331.787154055532937

  Charge       = 0
  Multiplicity = 1
  Electrons    = 56
  Nalpha       = 28
  Nbeta        = 28

  ==> Algorithm <==

  SCF Algorithm Type is DF.
  DIIS enabled.
  MOM disabled.
  Fractional occupation disabled.
  Guess Type is CORE.
  Energy threshold   = 1.00e-06
  Density threshold  = 1.00e-06
  Integral threshold = 0.00e+00

  ==> Primary Basis <==

  Basis Set: 6-31G*
    Number of shells: 66
    Number of basis function: 129
    Number of Cartesian functions: 129
    Spherical Harmonics?: false
    Max angular momentum: 2

  ==> Pre-Iterations <==

   -------------------------------------------------------
    Irrep   Nso     Nmo     Nalpha   Nbeta   Ndocc  Nsocc
   -------------------------------------------------------
     A        129     129       0       0       0       0
   -------------------------------------------------------
    Total     129     129      28      28      28       0
   -------------------------------------------------------

 OEINTS: Overlap, kinetic, potential, dipole, and quadrupole integrals
         stored in file 35.

  ==> Integral Setup <==

  ==> DFJK: Density-Fitted J/K Matrices <==

    J tasked:                  Yes
    K tasked:                  Yes
    wK tasked:                  No
    OpenMP threads:              1
    Integrals threads:           1
    Memory (MB):              1430
    Algorithm:                Core
    Integral Cache:           NONE
    Schwarz Cutoff:          1E-12
    Fitting Condition:       1E-12

   => Auxiliary Basis Set <=

  Basis Set: 
    Number of shells: 276
    Number of basis function: 867
    Number of Cartesian functions: 867
    Spherical Harmonics?: false
    Max angular momentum: 3

  Minimum eigenvalue in the overlap matrix is 2.5779031478E-03.
  Using Symmetric Orthogonalization.
  SCF Guess: Core (One-Electron) Hamiltonian.

  ==> Iterations <==

                           Total Energy        Delta E     RMS |[F,P]|

   @DF-RHF iter   1:  -243.91013124066058   -2.43910e+02   6.61628e-02 
   @DF-RHF iter   2:  -204.13389878357566    3.97762e+01   6.64944e-02 DIIS
   @DF-RHF iter   3:  -269.45977189919040   -6.53259e+01   3.98431e-02 DIIS
   @DF-RHF iter   4:  -260.16388348936096    9.29589e+00   6.00759e-02 DIIS
   @DF-RHF iter   5:  -304.13184538462428   -4.39680e+01   1.98087e-02 DIIS
   @DF-RHF iter   6:  -306.80770806066869   -2.67586e+00   1.04687e-02 DIIS
   @DF-RHF iter   7:  -308.41870918975030   -1.61100e+00   5.51274e-03 DIIS
   @DF-RHF iter   8:  -308.63475825252397   -2.16049e-01   1.23958e-03 DIIS
   @DF-RHF iter   9:  -308.65335553933221   -1.85973e-02   4.38667e-04 DIIS
   @DF-RHF iter  10:  -308.65715918354522   -3.80364e-03   1.81575e-04 DIIS
   @DF-RHF iter  11:  -308.65814503525291   -9.85852e-04   8.02554e-05 DIIS
   @DF-RHF iter  12:  -308.65844981012992   -3.04775e-04   3.85397e-05 DIIS
   @DF-RHF iter  13:  -308.65853003548955   -8.02254e-05   1.16271e-05 DIIS
   @DF-RHF iter  14:  -308.65853592891119   -5.89342e-06   4.56507e-06 DIIS
   @DF-RHF iter  15:  -308.65853675763799   -8.28727e-07   2.30525e-06 DIIS
   @DF-RHF iter  16:  -308.65853690558606   -1.47948e-07   7.98048e-07 DIIS

  ==> Post-Iterations <==

    Orbital Energies (a.u.)
    -----------------------

    Doubly Occupied:                                                      

       1A    -20.542654     2A    -11.320921     3A    -11.234291  
       4A    -11.233567     5A    -11.229875     6A    -11.189548  
       7A    -11.168544     8A     -1.388493     9A     -1.216645  
      10A     -1.078125    11A     -1.006615    12A     -0.891225  
      13A     -0.852181    14A     -0.744830    15A     -0.704961  
      16A     -0.652909    17A     -0.644892    18A     -0.629944  
      19A     -0.599643    20A     -0.580419    21A     -0.567226  
      22A     -0.534845    23A     -0.520696    24A     -0.489053  
      25A     -0.479713    26A     -0.469604    27A     -0.395454  
      28A     -0.294148  

    Virtual:                                                              

      29A      0.148014    30A      0.232606    31A      0.245743  
      32A      0.261553    33A      0.276986    34A      0.284862  
      35A      0.294156    36A      0.310155    37A      0.323931  
      38A      0.337481    39A      0.344908    40A      0.358344  
      41A      0.368566    42A      0.401550    43A      0.422402  
      44A      0.443112    45A      0.480342    46A      0.513118  
      47A      0.597439    48A      0.664479    49A      0.713754  
      50A      0.735679    51A      0.763020    52A      0.783808  
      53A      0.795719    54A      0.830717    55A      0.874376  
      56A      0.895417    57A      0.926717    58A      0.953314  
      59A      0.991496    60A      0.993916    61A      1.007095  
      62A      1.028462    63A      1.069954    64A      1.095295  
      65A      1.115173    66A      1.128738    67A      1.142917  
      68A      1.152198    69A      1.168492    70A      1.179295  
      71A      1.198749    72A      1.205747    73A      1.218879  
      74A      1.230419    75A      1.251952    76A      1.264140  
      77A      1.328877    78A      1.343070    79A      1.380115  
      80A      1.396443    81A      1.421472    82A      1.504861  
      83A      1.520442    84A      1.619527    85A      1.710169  
      86A      1.765296    87A      1.832193    88A      1.844688  
      89A      1.927895    90A      2.008158    91A      2.036397  
      92A      2.060722    93A      2.112507    94A      2.125085  
      95A      2.161005    96A      2.178820    97A      2.199917  
      98A      2.241349    99A      2.270983   100A      2.296349  
     101A      2.332096   102A      2.345271   103A      2.399064  
     104A      2.441217   105A      2.489078   106A      2.565826  
     107A      2.607398   108A      2.641656   109A      2.662543  
     110A      2.693073   111A      2.739302   112A      2.749491  
     113A      2.772785   114A      2.835756   115A      2.907004  
     116A      2.969134   117A      3.013734   118A      3.082891  
     119A      3.098102   120A      3.121118   121A      3.381929  
     122A      3.400933   123A      4.489002   124A      4.578544  
     125A      4.641212   126A      4.790455   127A      4.867159  
     128A      4.993359   129A      5.044603  

    Final Occupation by Irrep:
              A 
    DOCC [    28 ]

  Energy converged.

  @DF-RHF Final Energy:  -308.65853690558606

   => Energetics <=

    Nuclear Repulsion Energy =            331.7871540555329375
    One-Electron Energy =               -1075.5693849844642500
    Two-Electron Energy =                 435.1236940233452515
    DFT Exchange-Correlation Energy =       0.0000000000000000
    Empirical Dispersion Energy =           0.0000000000000000
    PCM Polarization Energy =               0.0000000000000000
    EFP Energy =                            0.0000000000000000
    Total Energy =                       -308.6585369055860610

    Alert: EFP and PCM quantities not currently incorporated into SCF psivars.

Properties will be evaluated at   0.000000,   0.000000,   0.000000 Bohr
  ==> Properties <==


Properties computed using the SCF density matrix

  Nuclear Dipole Moment: (a.u.)
     X:     0.0967      Y:     7.1685      Z:     4.0310

  Electronic Dipole Moment: (a.u.)
     X:     0.2976      Y:    -5.9219      Z:    -3.3816

  Dipole Moment: (a.u.)
     X:     0.3943      Y:     1.2466      Z:     0.6494     Total:     1.4599

  Dipole Moment: (Debye)
     X:     1.0022      Y:     3.1686      Z:     1.6507     Total:     3.7106


  Saving occupied orbitals to File 180.

*** tstop() called on cx1-1-2-2.cx1.hpc.ic.ac.uk at Tue Jul  5 17:01:32 2016
Module time:
	user time   =      16.04 seconds =       0.27 minutes
	system time =       0.08 seconds =       0.00 minutes
	total time  =         17 seconds =       0.28 minutes
Total time:
	user time   =      16.04 seconds =       0.27 minutes
	system time =       0.08 seconds =       0.00 minutes
	total time  =         17 seconds =       0.28 minutes


Properties will be evaluated at   0.000000,   0.000000,   0.000000 Bohr

Properties computed using the  density matrix

  Nuclear Dipole Moment: (a.u.)
     X:     0.0967      Y:     7.1685      Z:     4.0310

  Electronic Dipole Moment: (a.u.)
     X:     0.2976      Y:    -5.9219      Z:    -3.3816

  Dipole Moment: (a.u.)
     X:     0.3943      Y:     1.2466      Z:     0.6494     Total:     1.4599

  Dipole Moment: (Debye)
     X:     1.0022      Y:     3.1686      Z:     1.6507     Total:     3.7106

  Quadrupole Moment: (Debye Ang)
    XX:   -44.0739     YY:   -50.2977     ZZ:   -48.2660
    XY:    -2.5055     XZ:    -1.7912     YZ:    -4.9061

  Traceless Quadrupole Moment: (Debye Ang)
    XX:     3.4720     YY:    -2.7518     ZZ:    -0.7202
    XY:    -2.5055     XZ:    -1.7912     YZ:    -4.9061

  Mulliken Charges: (a.u.)
   Center  Symbol    Alpha    Beta     Spin     Total
       1     O     4.26397  4.26397  0.00000 -0.52794
       2     C     2.73275  2.73275  0.00000  0.53449
       3     C     3.20496  3.20496  0.00000 -0.40992
       4     C     3.40196  3.40196  0.00000 -0.80391
       5     C     3.16493  3.16493  0.00000 -0.32987
       6     H     0.39568  0.39568  0.00000  0.20864
       7     H     0.41741  0.41741  0.00000  0.16517
       8     C     3.14433  3.14433  0.00000 -0.28866
       9     H     0.41135  0.41135  0.00000  0.17729
      10     H     0.41001  0.41001  0.00000  0.17998
      11     C     3.35027  3.35027  0.00000 -0.70053
      12     H     0.41490  0.41490  0.00000  0.17020
      13     H     0.41831  0.41831  0.00000  0.16337
      14     H     0.40160  0.40160  0.00000  0.19679
      15     H     0.34303  0.34303  0.00000  0.31395
      16     H     0.40760  0.40760  0.00000  0.18481
      17     H     0.39364  0.39364  0.00000  0.21271
      18     H     0.40522  0.40522  0.00000  0.18957
      19     H     0.31807  0.31807  0.00000  0.36386

   Total alpha = 28.00000, Total beta = 28.00000, Total charge =  0.00000


*** PSI4 exiting successfully. Buy a developer a beer!
