    -----------------------------------------------------------------------
          Psi4: An Open-Source Ab Initio Electronic Structure Package
                              Psi4 (no tag) Driver

                          Git: Rev {detached?}  

    J. M. Turney, A. C. Simmonett, R. M. Parrish, E. G. Hohenstein,
    F. A. Evangelista, J. T. Fermann, B. J. Mintz, L. A. Burns, J. J. Wilke,
    M. L. Abrams, N. J. Russ, M. L. Leininger, C. L. Janssen, E. T. Seidl,
    W. D. Allen, H. F. Schaefer, R. A. King, E. F. Valeev, C. D. Sherrill,
    and T. D. Crawford, WIREs Comput. Mol. Sci. 2, 556-565 (2012)
    (doi: 10.1002/wcms.93)

                         Additional Contributions by
    A. E. DePrince, M. Saitow, U. Bozkaya, A. Yu. Sokolov
    -----------------------------------------------------------------------


    Psi4 started on: Tue Jul  5 16:50:33 2016

    Process ID:  32671
    PSI4DATADIR: /export131/home/mjharvey/miniconda3/share
    Memory level set to 256.000 MB

  ==> Input File <==

--------------------------------------------------------------------------
set {
	reference rhf
	basis 6-31G*
}


set_num_threads( 1 )
memory 2 gb

molecule MOL {
0 1

O	 0.888560	 1.036733	 0.704466
C	 0.576249	 0.131685	 -0.000108
C	 -0.766779	 -0.556801	 -0.000461
O	 1.391071	 -0.402883	 -0.900645
C	 -1.945214	 0.412366	 0.000161
H	 -0.796911	 -1.211249	 -0.867467
H	 -0.796854	 -1.212390	 0.865687
C	 -1.851003	 1.430701	 -1.135043
H	 -1.986407	 0.925269	 0.955062
H	 -2.870006	 -0.148553	 -0.081713
H	 -0.946584	 2.027704	 -1.057156
H	 -2.696928	 2.110022	 -1.116727
H	 -1.841119	 0.942075	 -2.105414
C	 2.208336	 0.488549	 -1.637282
H	 1.601599	 1.183704	 -2.199574
H	 2.788457	 -0.127612	 -2.306364
H	 2.860694	 1.040575	 -0.976067

	symmetry c1
}
set optking {
	frozen_dihedral = ("
		1 2 3 6,
		9 5 3 6
	")
}

ee = energy('scf')
oeprop('DIPOLE', 'QUADRUPOLE', 'MULLIKEN_CHARGES')
f=open( 'psi4out.xyz', 'w' )
f.write( "17  " )
f.write( str(ee) + "\n" )
f.write( MOL.save_string_xyz() )
f.close()
--------------------------------------------------------------------------

  Memory set to   2.000 GiB by Python script.

*** tstart() called on cx1-3-2-3.cx1.hpc.ic.ac.uk
*** at Tue Jul  5 16:50:33 2016


         ---------------------------------------------------------
                                   SCF
            by Justin Turney, Rob Parrish, and Andy Simmonett
                              RHF Reference
                        1 Threads,   2000 MiB Core
         ---------------------------------------------------------

  ==> Geometry <==

    Molecular point group: c1
    Full point group: C1

    Geometry (in Angstrom), charge = 0, multiplicity = 1:

       Center              X                  Y                   Z               Mass       
    ------------   -----------------  -----------------  -----------------  -----------------
           O          0.786658804817     0.658659946554     1.148972823256    15.994914619560
           C          0.474347804817    -0.246388053446     0.444398823256    12.000000000000
           C         -0.868680195183    -0.934874053446     0.444045823256    12.000000000000
           O          1.289169804817    -0.780956053446    -0.456138176744    15.994914619560
           C         -2.047115195183     0.034292946554     0.444667823256    12.000000000000
           H         -0.898812195183    -1.589322053446    -0.422960176744     1.007825032070
           H         -0.898755195183    -1.590463053446     1.310193823256     1.007825032070
           C         -1.952904195183     1.052627946554    -0.690536176744    12.000000000000
           H         -2.088308195183     0.547195946554     1.399568823256     1.007825032070
           H         -2.971907195183    -0.526626053446     0.362793823256     1.007825032070
           H         -1.048485195183     1.649630946554    -0.612649176744     1.007825032070
           H         -2.798829195183     1.731948946554    -0.672220176744     1.007825032070
           H         -1.943020195183     0.564001946554    -1.660907176744     1.007825032070
           C          2.106434804817     0.110475946554    -1.192775176744    12.000000000000
           H          1.499697804817     0.805630946554    -1.755067176744     1.007825032070
           H          2.686555804817    -0.505685053446    -1.861857176744     1.007825032070
           H          2.758792804817     0.662501946554    -0.531560176744     1.007825032070

  Running in c1 symmetry.

  Rotational constants: A =      0.14619  B =      0.05647  C =      0.05304 [cm^-1]
  Rotational constants: A =   4382.68658  B =   1692.96592  C =   1590.15121 [MHz]
  Nuclear repulsion =  322.344416934684375

  Charge       = 0
  Multiplicity = 1
  Electrons    = 56
  Nalpha       = 28
  Nbeta        = 28

  ==> Algorithm <==

  SCF Algorithm Type is DF.
  DIIS enabled.
  MOM disabled.
  Fractional occupation disabled.
  Guess Type is CORE.
  Energy threshold   = 1.00e-06
  Density threshold  = 1.00e-06
  Integral threshold = 0.00e+00

  ==> Primary Basis <==

  Basis Set: 6-31G*
    Number of shells: 62
    Number of basis function: 125
    Number of Cartesian functions: 125
    Spherical Harmonics?: false
    Max angular momentum: 2

  ==> Pre-Iterations <==

   -------------------------------------------------------
    Irrep   Nso     Nmo     Nalpha   Nbeta   Ndocc  Nsocc
   -------------------------------------------------------
     A        125     125       0       0       0       0
   -------------------------------------------------------
    Total     125     125      28      28      28       0
   -------------------------------------------------------

 OEINTS: Overlap, kinetic, potential, dipole, and quadrupole integrals
         stored in file 35.

  ==> Integral Setup <==

  ==> DFJK: Density-Fitted J/K Matrices <==

    J tasked:                  Yes
    K tasked:                  Yes
    wK tasked:                  No
    OpenMP threads:              1
    Integrals threads:           1
    Memory (MB):              1430
    Algorithm:                Core
    Integral Cache:           NONE
    Schwarz Cutoff:          1E-12
    Fitting Condition:       1E-12

   => Auxiliary Basis Set <=

  Basis Set: 
    Number of shells: 258
    Number of basis function: 817
    Number of Cartesian functions: 817
    Spherical Harmonics?: false
    Max angular momentum: 3

  Minimum eigenvalue in the overlap matrix is 2.9125741241E-03.
  Using Symmetric Orthogonalization.
  SCF Guess: Core (One-Electron) Hamiltonian.

  ==> Iterations <==

                           Total Energy        Delta E     RMS |[F,P]|

   @DF-RHF iter   1:  -233.92472954179431   -2.33925e+02   8.09322e-02 
   @DF-RHF iter   2:  -181.65785319616998    5.22669e+01   7.71047e-02 DIIS
   @DF-RHF iter   3:  -263.87767985056240   -8.22198e+01   5.65833e-02 DIIS
   @DF-RHF iter   4:  -282.35624725711710   -1.84786e+01   6.46757e-02 DIIS
   @DF-RHF iter   5:  -342.19712254222662   -5.98409e+01   1.38849e-02 DIIS
   @DF-RHF iter   6:  -343.88605059722187   -1.68893e+00   1.15574e-02 DIIS
   @DF-RHF iter   7:  -344.81559607548462   -9.29545e-01   2.85736e-03 DIIS
   @DF-RHF iter   8:  -344.87672480716338   -6.11287e-02   1.42080e-03 DIIS
   @DF-RHF iter   9:  -344.89235556159252   -1.56308e-02   3.30540e-04 DIIS
   @DF-RHF iter  10:  -344.89375187438833   -1.39631e-03   1.26202e-04 DIIS
   @DF-RHF iter  11:  -344.89391470767981   -1.62833e-04   3.98851e-05 DIIS
   @DF-RHF iter  12:  -344.89393825886901   -2.35512e-05   1.24823e-05 DIIS
   @DF-RHF iter  13:  -344.89394019002174   -1.93115e-06   4.45439e-06 DIIS
   @DF-RHF iter  14:  -344.89394053580105   -3.45779e-07   1.65455e-06 DIIS
   @DF-RHF iter  15:  -344.89394061913464   -8.33336e-08   6.31141e-07 DIIS

  ==> Post-Iterations <==

    Orbital Energies (a.u.)
    -----------------------

    Doubly Occupied:                                                      

       1A    -20.596435     2A    -20.547600     3A    -11.373138  
       4A    -11.285125     5A    -11.233648     6A    -11.229182  
       7A    -11.215764     8A     -1.467360     9A     -1.363698  
      10A     -1.083423    11A     -0.998615    12A     -0.942845  
      13A     -0.837450    14A     -0.766555    15A     -0.697462  
      16A     -0.681101    17A     -0.668535    18A     -0.627139  
      19A     -0.619440    20A     -0.577260    21A     -0.564892  
      22A     -0.539756    23A     -0.522283    24A     -0.495814  
      25A     -0.488287    26A     -0.480658    27A     -0.452767  
      28A     -0.433515  

    Virtual:                                                              

      29A      0.177924    30A      0.232077    31A      0.256497  
      32A      0.283379    33A      0.290708    34A      0.304555  
      35A      0.312819    36A      0.319391    37A      0.329985  
      38A      0.335316    39A      0.346492    40A      0.357240  
      41A      0.402306    42A      0.429810    43A      0.454978  
      44A      0.527987    45A      0.573055    46A      0.697312  
      47A      0.713494    48A      0.737014    49A      0.746324  
      50A      0.771883    51A      0.788385    52A      0.803572  
      53A      0.843709    54A      0.893075    55A      0.914134  
      56A      0.937968    57A      0.954476    58A      0.980609  
      59A      1.015820    60A      1.071730    61A      1.089735  
      62A      1.119968    63A      1.127662    64A      1.129331  
      65A      1.147543    66A      1.172719    67A      1.193517  
      68A      1.205681    69A      1.209271    70A      1.228159  
      71A      1.246044    72A      1.250350    73A      1.273042  
      74A      1.316791    75A      1.372443    76A      1.385055  
      77A      1.407269    78A      1.462861    79A      1.538957  
      80A      1.634635    81A      1.649119    82A      1.745182  
      83A      1.769476    84A      1.831218    85A      1.850181  
      86A      1.911099    87A      1.948159    88A      1.995514  
      89A      2.060564    90A      2.091692    91A      2.107352  
      92A      2.156048    93A      2.188826    94A      2.244005  
      95A      2.273159    96A      2.310568    97A      2.343019  
      98A      2.374993    99A      2.398067   100A      2.434987  
     101A      2.452195   102A      2.530333   103A      2.601979  
     104A      2.636782   105A      2.659568   106A      2.681352  
     107A      2.708636   108A      2.733545   109A      2.811336  
     110A      2.829002   111A      2.902443   112A      2.943653  
     113A      3.053847   114A      3.130809   115A      3.167496  
     116A      3.353091   117A      3.407540   118A      3.535081  
     119A      4.421405   120A      4.547720   121A      4.653135  
     122A      4.676500   123A      4.764691   124A      4.851348  
     125A      4.985906  

    Final Occupation by Irrep:
              A 
    DOCC [    28 ]

  Energy converged.

  @DF-RHF Final Energy:  -344.89394061913464

   => Energetics <=

    Nuclear Repulsion Energy =            322.3444169346843751
    One-Electron Energy =               -1108.8972398689636520
    Two-Electron Energy =                 441.6588823151435008
    DFT Exchange-Correlation Energy =       0.0000000000000000
    Empirical Dispersion Energy =           0.0000000000000000
    PCM Polarization Energy =               0.0000000000000000
    EFP Energy =                            0.0000000000000000
    Total Energy =                       -344.8939406191357193

    Alert: EFP and PCM quantities not currently incorporated into SCF psivars.

Properties will be evaluated at   0.000000,   0.000000,   0.000000 Bohr
  ==> Properties <==


Properties computed using the SCF density matrix

  Nuclear Dipole Moment: (a.u.)
     X:    -5.3365      Y:     1.6389      Z:    -4.1634

  Electronic Dipole Moment: (a.u.)
     X:     5.0596      Y:    -1.9380      Z:     3.3632

  Dipole Moment: (a.u.)
     X:    -0.2769      Y:    -0.2991      Z:    -0.8002     Total:     0.8980

  Dipole Moment: (Debye)
     X:    -0.7037      Y:    -0.7602      Z:    -2.0338     Total:     2.2825


  Saving occupied orbitals to File 180.

*** tstop() called on cx1-3-2-3.cx1.hpc.ic.ac.uk at Tue Jul  5 16:50:44 2016
Module time:
	user time   =      10.59 seconds =       0.18 minutes
	system time =       0.07 seconds =       0.00 minutes
	total time  =         11 seconds =       0.18 minutes
Total time:
	user time   =      10.59 seconds =       0.18 minutes
	system time =       0.07 seconds =       0.00 minutes
	total time  =         11 seconds =       0.18 minutes


Properties will be evaluated at   0.000000,   0.000000,   0.000000 Bohr

Properties computed using the  density matrix

  Nuclear Dipole Moment: (a.u.)
     X:    -5.3365      Y:     1.6389      Z:    -4.1634

  Electronic Dipole Moment: (a.u.)
     X:     5.0596      Y:    -1.9380      Z:     3.3632

  Dipole Moment: (a.u.)
     X:    -0.2769      Y:    -0.2991      Z:    -0.8002     Total:     0.8980

  Dipole Moment: (Debye)
     X:    -0.7037      Y:    -0.7602      Z:    -2.0338     Total:     2.2825

  Quadrupole Moment: (Debye Ang)
    XX:   -39.7405     YY:   -44.9024     ZZ:   -44.0004
    XY:     0.7946     XZ:    -4.2410     YZ:    -3.3739

  Traceless Quadrupole Moment: (Debye Ang)
    XX:     3.1406     YY:    -2.0213     ZZ:    -1.1193
    XY:     0.7946     XZ:    -4.2410     YZ:    -3.3739

  Mulliken Charges: (a.u.)
   Center  Symbol    Alpha    Beta     Spin     Total
       1     O     4.27794  4.27794  0.00000 -0.55589
       2     C     2.60754  2.60754  0.00000  0.78491
       3     C     3.21050  3.21050  0.00000 -0.42100
       4     O     4.30737  4.30737  0.00000 -0.61475
       5     C     3.15340  3.15340  0.00000 -0.30681
       6     H     0.40185  0.40185  0.00000  0.19629
       7     H     0.39847  0.39847  0.00000  0.20306
       8     C     3.25283  3.25283  0.00000 -0.50566
       9     H     0.40701  0.40701  0.00000  0.18598
      10     H     0.41506  0.41506  0.00000  0.16989
      11     H     0.41098  0.41098  0.00000  0.17803
      12     H     0.41446  0.41446  0.00000  0.17108
      13     H     0.42182  0.42182  0.00000  0.15636
      14     C     3.09611  3.09611  0.00000 -0.19221
      15     H     0.41570  0.41570  0.00000  0.16859
      16     H     0.40631  0.40631  0.00000  0.18737
      17     H     0.40262  0.40262  0.00000  0.19476

   Total alpha = 28.00000, Total beta = 28.00000, Total charge =  0.00000


*** PSI4 exiting successfully. Buy a developer a beer!
