    -----------------------------------------------------------------------
          Psi4: An Open-Source Ab Initio Electronic Structure Package
                              Psi4 (no tag) Driver

                          Git: Rev {detached?}  

    J. M. Turney, A. C. Simmonett, R. M. Parrish, E. G. Hohenstein,
    F. A. Evangelista, J. T. Fermann, B. J. Mintz, L. A. Burns, J. J. Wilke,
    M. L. Abrams, N. J. Russ, M. L. Leininger, C. L. Janssen, E. T. Seidl,
    W. D. Allen, H. F. Schaefer, R. A. King, E. F. Valeev, C. D. Sherrill,
    and T. D. Crawford, WIREs Comput. Mol. Sci. 2, 556-565 (2012)
    (doi: 10.1002/wcms.93)

                         Additional Contributions by
    A. E. DePrince, M. Saitow, U. Bozkaya, A. Yu. Sokolov
    -----------------------------------------------------------------------


    Psi4 started on: Tue Jul  5 16:23:24 2016

    Process ID:   6143
    PSI4DATADIR: /export131/home/mjharvey/miniconda3/share
    Memory level set to 256.000 MB

  ==> Input File <==

--------------------------------------------------------------------------
set {
	reference rhf
	basis 6-31G*
}


set_num_threads( 1 )
memory 2 gb

molecule MOL {
0 1

H	 -1.070890	 -1.366565	 0.180696
O	 -1.422729	 -0.573567	 -0.196946
C	 -0.731407	 0.539437	 0.309156
C	 0.680193	 0.672443	 -0.251532
H	 -1.319765	 1.404033	 0.030086
H	 -0.700012	 0.506517	 1.397677
C	 1.150954	 2.120517	 -0.389988
H	 1.361789	 0.126639	 0.394355
H	 0.707129	 0.187677	 -1.225091
H	 1.205667	 2.613845	 0.575842
H	 2.141427	 2.167927	 -0.830082
H	 0.481012	 2.694845	 -1.025275

	symmetry c1
}
set optking {
	frozen_dihedral = ("
		1 2 3 4
	")
}

ee = energy('scf')
oeprop('DIPOLE', 'QUADRUPOLE', 'MULLIKEN_CHARGES')
f=open( 'psi4out.xyz', 'w' )
f.write( "12  " )
f.write( str(ee) + "\n" )
f.write( MOL.save_string_xyz() )
f.close()
--------------------------------------------------------------------------

  Memory set to   2.000 GiB by Python script.

*** tstart() called on cx1-1-3-4.cx1.hpc.ic.ac.uk
*** at Tue Jul  5 16:23:25 2016


         ---------------------------------------------------------
                                   SCF
            by Justin Turney, Rob Parrish, and Andy Simmonett
                              RHF Reference
                        1 Threads,   2000 MiB Core
         ---------------------------------------------------------

  ==> Geometry <==

    Molecular point group: c1
    Full point group: C1

    Geometry (in Angstrom), charge = 0, multiplicity = 1:

       Center              X                  Y                   Z               Mass       
    ------------   -----------------  -----------------  -----------------  -----------------
           H         -0.958810236758    -2.019518221390     0.307977673391     1.007825032070
           O         -1.310649236758    -1.226520221390    -0.069664326609    15.994914619560
           C         -0.619327236758    -0.113516221390     0.436437673391    12.000000000000
           C          0.792272763242     0.019489778610    -0.124250326609    12.000000000000
           H         -1.207685236758     0.751079778610     0.157367673391     1.007825032070
           H         -0.587932236758    -0.146436221390     1.524958673391     1.007825032070
           C          1.263033763242     1.467563778610    -0.262706326609    12.000000000000
           H          1.473868763242    -0.526314221390     0.521636673391     1.007825032070
           H          0.819208763242    -0.465276221390    -1.097809326609     1.007825032070
           H          1.317746763242     1.960891778610     0.703123673391     1.007825032070
           H          2.253506763242     1.514973778610    -0.702800326609     1.007825032070
           H          0.593091763242     2.041891778610    -0.897993326609     1.007825032070

  Running in c1 symmetry.

  Rotational constants: A =      0.82549  B =      0.12675  C =      0.12098 [cm^-1]
  Rotational constants: A =  24747.45278  B =   3799.92486  C =   3626.90386 [MHz]
  Nuclear repulsion =  130.860014562993314

  Charge       = 0
  Multiplicity = 1
  Electrons    = 34
  Nalpha       = 17
  Nbeta        = 17

  ==> Algorithm <==

  SCF Algorithm Type is DF.
  DIIS enabled.
  MOM disabled.
  Fractional occupation disabled.
  Guess Type is CORE.
  Energy threshold   = 1.00e-06
  Density threshold  = 1.00e-06
  Integral threshold = 0.00e+00

  ==> Primary Basis <==

  Basis Set: 6-31G*
    Number of shells: 40
    Number of basis function: 76
    Number of Cartesian functions: 76
    Spherical Harmonics?: false
    Max angular momentum: 2

  ==> Pre-Iterations <==

   -------------------------------------------------------
    Irrep   Nso     Nmo     Nalpha   Nbeta   Ndocc  Nsocc
   -------------------------------------------------------
     A         76      76       0       0       0       0
   -------------------------------------------------------
    Total      76      76      17      17      17       0
   -------------------------------------------------------

 OEINTS: Overlap, kinetic, potential, dipole, and quadrupole integrals
         stored in file 35.

  ==> Integral Setup <==

  ==> DFJK: Density-Fitted J/K Matrices <==

    J tasked:                  Yes
    K tasked:                  Yes
    wK tasked:                  No
    OpenMP threads:              1
    Integrals threads:           1
    Memory (MB):              1430
    Algorithm:                Core
    Integral Cache:           NONE
    Schwarz Cutoff:          1E-12
    Fitting Condition:       1E-12

   => Auxiliary Basis Set <=

  Basis Set: 
    Number of shells: 168
    Number of basis function: 524
    Number of Cartesian functions: 524
    Spherical Harmonics?: false
    Max angular momentum: 3

  Minimum eigenvalue in the overlap matrix is 4.4479348934E-03.
  Using Symmetric Orthogonalization.
  SCF Guess: Core (One-Electron) Hamiltonian.

  ==> Iterations <==

                           Total Energy        Delta E     RMS |[F,P]|

   @DF-RHF iter   1:  -156.06885675394747   -1.56069e+02   8.60076e-02 
   @DF-RHF iter   2:  -112.03952862896381    4.40293e+01   8.15608e-02 DIIS
   @DF-RHF iter   3:  -163.13722236063629   -5.10977e+01   6.54405e-02 DIIS
   @DF-RHF iter   4:  -191.65621047603307   -2.85190e+01   2.26711e-02 DIIS
   @DF-RHF iter   5:  -193.00804395259152   -1.35183e+00   6.25573e-03 DIIS
   @DF-RHF iter   6:  -193.09893810840154   -9.08942e-02   1.56522e-03 DIIS
   @DF-RHF iter   7:  -193.10599127478670   -7.05317e-03   4.46224e-04 DIIS
   @DF-RHF iter   8:  -193.10672269464450   -7.31420e-04   1.06325e-04 DIIS
   @DF-RHF iter   9:  -193.10677235816073   -4.96635e-05   3.26368e-05 DIIS
   @DF-RHF iter  10:  -193.10677849959106   -6.14143e-06   9.07653e-06 DIIS
   @DF-RHF iter  11:  -193.10677908871449   -5.89123e-07   2.64740e-06 DIIS
   @DF-RHF iter  12:  -193.10677912858094   -3.98664e-08   6.17877e-07 DIIS

  ==> Post-Iterations <==

    Orbital Energies (a.u.)
    -----------------------

    Doubly Occupied:                                                      

       1A    -20.552752     2A    -11.266957     3A    -11.216599  
       4A    -11.215112     5A     -1.359461     6A     -1.051593  
       7A     -0.918490     8A     -0.816953     9A     -0.694590  
      10A     -0.629189    11A     -0.602713    12A     -0.588049  
      13A     -0.534124    14A     -0.509500    15A     -0.492386  
      16A     -0.466275    17A     -0.428543  

    Virtual:                                                              

      18A      0.224845    19A      0.241427    20A      0.290036  
      21A      0.295448    22A      0.316667    23A      0.326773  
      24A      0.338169    25A      0.345302    26A      0.416187  
      27A      0.436516    28A      0.455879    29A      0.730762  
      30A      0.739784    31A      0.765017    32A      0.782407  
      33A      0.834571    34A      0.909229    35A      0.939621  
      36A      0.949102    37A      1.014977    38A      1.083710  
      39A      1.142151    40A      1.166534    41A      1.173751  
      42A      1.183365    43A      1.184286    44A      1.208191  
      45A      1.227611    46A      1.251397    47A      1.298802  
      48A      1.321626    49A      1.445481    50A      1.579631  
      51A      1.662292    52A      1.703875    53A      1.827843  
      54A      1.889030    55A      1.953241    56A      2.066372  
      57A      2.113232    58A      2.226192    59A      2.260251  
      60A      2.303227    61A      2.336561    62A      2.437383  
      63A      2.528604    64A      2.610902    65A      2.646248  
      66A      2.708087    67A      2.733421    68A      2.802961  
      69A      2.872666    70A      2.947224    71A      3.095492  
      72A      3.228742    73A      4.179336    74A      4.578744  
      75A      4.727037    76A      4.917527  

    Final Occupation by Irrep:
              A 
    DOCC [    17 ]

  Energy converged.

  @DF-RHF Final Energy:  -193.10677912858094

   => Energetics <=

    Nuclear Repulsion Energy =            130.8600145629933138
    One-Electron Energy =                -521.2470898229586282
    Two-Electron Energy =                 197.2802961313843753
    DFT Exchange-Correlation Energy =       0.0000000000000000
    Empirical Dispersion Energy =           0.0000000000000000
    PCM Polarization Energy =               0.0000000000000000
    EFP Energy =                            0.0000000000000000
    Total Energy =                       -193.1067791285809108

    Alert: EFP and PCM quantities not currently incorporated into SCF psivars.

Properties will be evaluated at   0.000000,   0.000000,   0.000000 Bohr
  ==> Properties <==


Properties computed using the SCF density matrix

  Nuclear Dipole Moment: (a.u.)
     X:     3.4651      Y:     2.9108      Z:     0.4838

  Electronic Dipole Moment: (a.u.)
     X:    -2.8950      Y:    -2.9556      Z:    -0.0476

  Dipole Moment: (a.u.)
     X:     0.5702      Y:    -0.0447      Z:     0.4362     Total:     0.7193

  Dipole Moment: (Debye)
     X:     1.4493      Y:    -0.1137      Z:     1.1088     Total:     1.8283


  Saving occupied orbitals to File 180.

*** tstop() called on cx1-1-3-4.cx1.hpc.ic.ac.uk at Tue Jul  5 16:23:28 2016
Module time:
	user time   =       3.19 seconds =       0.05 minutes
	system time =       0.03 seconds =       0.00 minutes
	total time  =          3 seconds =       0.05 minutes
Total time:
	user time   =       3.19 seconds =       0.05 minutes
	system time =       0.03 seconds =       0.00 minutes
	total time  =          3 seconds =       0.05 minutes


Properties will be evaluated at   0.000000,   0.000000,   0.000000 Bohr

Properties computed using the  density matrix

  Nuclear Dipole Moment: (a.u.)
     X:     3.4651      Y:     2.9108      Z:     0.4838

  Electronic Dipole Moment: (a.u.)
     X:    -2.8950      Y:    -2.9556      Z:    -0.0476

  Dipole Moment: (a.u.)
     X:     0.5702      Y:    -0.0447      Z:     0.4362     Total:     0.7193

  Dipole Moment: (Debye)
     X:     1.4493      Y:    -0.1137      Z:     1.1088     Total:     1.8283

  Quadrupole Moment: (Debye Ang)
    XX:   -30.1563     YY:   -23.9105     ZZ:   -26.3068
    XY:    -1.7231     XZ:    -1.0710     YZ:    -1.8671

  Traceless Quadrupole Moment: (Debye Ang)
    XX:    -3.3651     YY:     2.8807     ZZ:     0.4844
    XY:    -1.7231     XZ:    -1.0710     YZ:    -1.8671

  Mulliken Charges: (a.u.)
   Center  Symbol    Alpha    Beta     Spin     Total
       1     H     0.28297  0.28297  0.00000  0.43406
       2     O     4.36964  4.36964  0.00000 -0.73928
       3     C     2.99249  2.99249  0.00000  0.01503
       4     C     3.17082  3.17082  0.00000 -0.34164
       5     H     0.41637  0.41637  0.00000  0.16727
       6     H     0.43065  0.43065  0.00000  0.13870
       7     C     3.24577  3.24577  0.00000 -0.49153
       8     H     0.42469  0.42469  0.00000  0.15063
       9     H     0.41085  0.41085  0.00000  0.17829
      10     H     0.42129  0.42129  0.00000  0.15743
      11     H     0.41661  0.41661  0.00000  0.16679
      12     H     0.41787  0.41787  0.00000  0.16427

   Total alpha = 17.00000, Total beta = 17.00000, Total charge =  0.00000


*** PSI4 exiting successfully. Buy a developer a beer!
