    -----------------------------------------------------------------------
          Psi4: An Open-Source Ab Initio Electronic Structure Package
                              Psi4 (no tag) Driver

                          Git: Rev {detached?}  

    J. M. Turney, A. C. Simmonett, R. M. Parrish, E. G. Hohenstein,
    F. A. Evangelista, J. T. Fermann, B. J. Mintz, L. A. Burns, J. J. Wilke,
    M. L. Abrams, N. J. Russ, M. L. Leininger, C. L. Janssen, E. T. Seidl,
    W. D. Allen, H. F. Schaefer, R. A. King, E. F. Valeev, C. D. Sherrill,
    and T. D. Crawford, WIREs Comput. Mol. Sci. 2, 556-565 (2012)
    (doi: 10.1002/wcms.93)

                         Additional Contributions by
    A. E. DePrince, M. Saitow, U. Bozkaya, A. Yu. Sokolov
    -----------------------------------------------------------------------


    Psi4 started on: Tue Jul  5 16:33:45 2016

    Process ID:  15822
    PSI4DATADIR: /export131/home/mjharvey/miniconda3/share
    Memory level set to 256.000 MB

  ==> Input File <==

--------------------------------------------------------------------------
set {
	reference rhf
	basis 6-31G*
}


set_num_threads( 1 )
memory 2 gb

molecule MOL {
0 1

H	 -3.092134	 0.267536	 0.253564
O	 -2.347518	 -0.290803	 0.079804
C	 -1.184022	 0.487508	 -0.006784
C	 0.062599	 -0.378592	 0.031606
H	 -1.176523	 1.099369	 -0.904519
H	 -1.187323	 1.153111	 0.844927
O	 -0.043959	 -1.331029	 -0.978982
H	 0.152937	 -0.862108	 1.006301
H	 0.944499	 0.244194	 -0.106143
C	 1.051901	 -2.183439	 -1.086827
H	 1.203606	 -2.754072	 -0.172501
H	 0.853769	 -2.869137	 -1.898901
H	 1.964096	 -1.631937	 -1.304857

	symmetry c1
}
set optking {
	frozen_dihedral = ("
		8 4 3 5,
		10 7 4 8,
		4 7 10 13
	")
}

ee = energy('scf')
oeprop('DIPOLE', 'QUADRUPOLE', 'MULLIKEN_CHARGES')
f=open( 'psi4out.xyz', 'w' )
f.write( "13  " )
f.write( str(ee) + "\n" )
f.write( MOL.save_string_xyz() )
f.close()
--------------------------------------------------------------------------

  Memory set to   2.000 GiB by Python script.

*** tstart() called on cx1-49-4-2.cx1.hpc.ic.ac.uk
*** at Tue Jul  5 16:33:46 2016


         ---------------------------------------------------------
                                   SCF
            by Justin Turney, Rob Parrish, and Andy Simmonett
                              RHF Reference
                        1 Threads,   2000 MiB Core
         ---------------------------------------------------------

  ==> Geometry <==

    Molecular point group: c1
    Full point group: C1

    Geometry (in Angstrom), charge = 0, multiplicity = 1:

       Center              X                  Y                   Z               Mass       
    ------------   -----------------  -----------------  -----------------  -----------------
           H         -2.573735767384     1.006897943874     0.640485525920     1.007825032070
           O         -1.829119767384     0.448558943874     0.466725525920    15.994914619560
           C         -0.665623767384     1.226869943874     0.380137525920    12.000000000000
           C          0.580997232616     0.360769943874     0.418527525920    12.000000000000
           H         -0.658124767384     1.838730943874    -0.517597474080     1.007825032070
           H         -0.668924767384     1.892472943874     1.231848525920     1.007825032070
           O          0.474439232616    -0.591667056126    -0.592060474080    15.994914619560
           H          0.671335232616    -0.122746056126     1.393222525920     1.007825032070
           H          1.462897232616     0.983555943874     0.280778525920     1.007825032070
           C          1.570299232616    -1.444077056126    -0.699905474080    12.000000000000
           H          1.722004232616    -2.014710056126     0.214420525920     1.007825032070
           H          1.372167232616    -2.129775056126    -1.511979474080     1.007825032070
           H          2.482494232616    -0.892575056126    -0.917935474080     1.007825032070

  Running in c1 symmetry.

  Rotational constants: A =      0.46182  B =      0.09019  C =      0.08116 [cm^-1]
  Rotational constants: A =  13844.97345  B =   2703.79247  C =   2433.26215 [MHz]
  Nuclear repulsion =  193.418194078436414

  Charge       = 0
  Multiplicity = 1
  Electrons    = 42
  Nalpha       = 21
  Nbeta        = 21

  ==> Algorithm <==

  SCF Algorithm Type is DF.
  DIIS enabled.
  MOM disabled.
  Fractional occupation disabled.
  Guess Type is CORE.
  Energy threshold   = 1.00e-06
  Density threshold  = 1.00e-06
  Integral threshold = 0.00e+00

  ==> Primary Basis <==

  Basis Set: 6-31G*
    Number of shells: 46
    Number of basis function: 91
    Number of Cartesian functions: 91
    Spherical Harmonics?: false
    Max angular momentum: 2

  ==> Pre-Iterations <==

   -------------------------------------------------------
    Irrep   Nso     Nmo     Nalpha   Nbeta   Ndocc  Nsocc
   -------------------------------------------------------
     A         91      91       0       0       0       0
   -------------------------------------------------------
    Total      91      91      21      21      21       0
   -------------------------------------------------------

 OEINTS: Overlap, kinetic, potential, dipole, and quadrupole integrals
         stored in file 35.

  ==> Integral Setup <==

  ==> DFJK: Density-Fitted J/K Matrices <==

    J tasked:                  Yes
    K tasked:                  Yes
    wK tasked:                  No
    OpenMP threads:              1
    Integrals threads:           1
    Memory (MB):              1430
    Algorithm:                Core
    Integral Cache:           NONE
    Schwarz Cutoff:          1E-12
    Fitting Condition:       1E-12

   => Auxiliary Basis Set <=

  Basis Set: 
    Number of shells: 192
    Number of basis function: 605
    Number of Cartesian functions: 605
    Spherical Harmonics?: false
    Max angular momentum: 3

  Minimum eigenvalue in the overlap matrix is 4.4300605075E-03.
  Using Symmetric Orthogonalization.
  SCF Guess: Core (One-Electron) Hamiltonian.

  ==> Iterations <==

                           Total Energy        Delta E     RMS |[F,P]|

   @DF-RHF iter   1:  -223.45621991061202   -2.23456e+02   7.94779e-02 
   @DF-RHF iter   2:  -169.22225885552965    5.42340e+01   6.80317e-02 DIIS
   @DF-RHF iter   3:  -229.02979933597490   -5.98075e+01   6.79880e-02 DIIS
   @DF-RHF iter   4:  -256.80069262892641   -2.77709e+01   3.85745e-02 DIIS
   @DF-RHF iter   5:  -267.52009462854801   -1.07194e+01   9.88420e-03 DIIS
   @DF-RHF iter   6:  -267.89175486057536   -3.71660e-01   3.69603e-03 DIIS
   @DF-RHF iter   7:  -267.94078837810025   -4.90335e-02   9.86809e-04 DIIS
   @DF-RHF iter   8:  -267.94444700092549   -3.65862e-03   3.67050e-04 DIIS
   @DF-RHF iter   9:  -267.94511211262625   -6.65112e-04   1.21887e-04 DIIS
   @DF-RHF iter  10:  -267.94518853110014   -7.64185e-05   4.13007e-05 DIIS
   @DF-RHF iter  11:  -267.94519935229118   -1.08212e-05   1.50331e-05 DIIS
   @DF-RHF iter  12:  -267.94520057910722   -1.22682e-06   4.07127e-06 DIIS
   @DF-RHF iter  13:  -267.94520068187387   -1.02767e-07   6.82524e-07 DIIS

  ==> Post-Iterations <==

    Orbital Energies (a.u.)
    -----------------------

    Doubly Occupied:                                                      

       1A    -20.552552     2A    -20.549532     3A    -11.271438  
       4A    -11.270256     5A    -11.262885     6A     -1.382071  
       7A     -1.353216     8A     -1.017278     9A     -0.912194  
      10A     -0.827147    11A     -0.708583    12A     -0.675730  
      13A     -0.643095    14A     -0.632734    15A     -0.605969  
      16A     -0.552776    17A     -0.537478    18A     -0.486087  
      19A     -0.471626    20A     -0.434199    21A     -0.413768  

    Virtual:                                                              

      22A      0.222778    23A      0.249094    24A      0.280705  
      25A      0.302741    26A      0.319605    27A      0.327355  
      28A      0.337922    29A      0.342670    30A      0.358896  
      31A      0.416376    32A      0.434147    33A      0.453762  
      34A      0.726862    35A      0.764452    36A      0.775575  
      37A      0.811434    38A      0.816852    39A      0.846618  
      40A      0.881322    41A      0.950928    42A      0.991951  
      43A      1.061976    44A      1.105316    45A      1.119985  
      46A      1.136301    47A      1.153296    48A      1.165001  
      49A      1.190946    50A      1.208455    51A      1.234769  
      52A      1.269794    53A      1.286716    54A      1.328586  
      55A      1.397853    56A      1.406483    57A      1.445284  
      58A      1.596801    59A      1.663866    60A      1.699033  
      61A      1.735236    62A      1.794101    63A      1.849238  
      64A      1.942671    65A      1.997029    66A      2.053175  
      67A      2.112901    68A      2.221081    69A      2.262640  
      70A      2.385834    71A      2.402231    72A      2.432285  
      73A      2.471172    74A      2.502557    75A      2.525895  
      76A      2.624474    77A      2.642871    78A      2.705609  
      79A      2.774597    80A      2.826198    81A      2.870254  
      82A      2.908427    83A      3.057483    84A      3.185967  
      85A      3.203800    86A      3.354795    87A      4.164208  
      88A      4.373866    89A      4.638772    90A      4.684428  
      91A      4.876662  

    Final Occupation by Irrep:
              A 
    DOCC [    21 ]

  Energy converged.

  @DF-RHF Final Energy:  -267.94520068187387

   => Energetics <=

    Nuclear Repulsion Energy =            193.4181940784364144
    One-Electron Energy =                -749.6054819164630771
    Two-Electron Energy =                 288.2420871561536160
    DFT Exchange-Correlation Energy =       0.0000000000000000
    Empirical Dispersion Energy =           0.0000000000000000
    PCM Polarization Energy =               0.0000000000000000
    EFP Energy =                            0.0000000000000000
    Total Energy =                       -267.9452006818730752

    Alert: EFP and PCM quantities not currently incorporated into SCF psivars.

Properties will be evaluated at   0.000000,   0.000000,   0.000000 Bohr
  ==> Properties <==


Properties computed using the SCF density matrix

  Nuclear Dipole Moment: (a.u.)
     X:     3.5654      Y:     0.5260      Z:     0.7618

  Electronic Dipole Moment: (a.u.)
     X:    -3.1253      Y:     0.1666      Z:    -0.3632

  Dipole Moment: (a.u.)
     X:     0.4401      Y:     0.6926      Z:     0.3986     Total:     0.9123

  Dipole Moment: (Debye)
     X:     1.1186      Y:     1.7604      Z:     1.0130     Total:     2.3187


  Saving occupied orbitals to File 180.

*** tstop() called on cx1-49-4-2.cx1.hpc.ic.ac.uk at Tue Jul  5 16:33:52 2016
Module time:
	user time   =       5.28 seconds =       0.09 minutes
	system time =       0.05 seconds =       0.00 minutes
	total time  =          6 seconds =       0.10 minutes
Total time:
	user time   =       5.28 seconds =       0.09 minutes
	system time =       0.05 seconds =       0.00 minutes
	total time  =          6 seconds =       0.10 minutes


Properties will be evaluated at   0.000000,   0.000000,   0.000000 Bohr

Properties computed using the  density matrix

  Nuclear Dipole Moment: (a.u.)
     X:     3.5654      Y:     0.5260      Z:     0.7618

  Electronic Dipole Moment: (a.u.)
     X:    -3.1253      Y:     0.1666      Z:    -0.3632

  Dipole Moment: (a.u.)
     X:     0.4401      Y:     0.6926      Z:     0.3986     Total:     0.9123

  Dipole Moment: (Debye)
     X:     1.1186      Y:     1.7604      Z:     1.0130     Total:     2.3187

  Quadrupole Moment: (Debye Ang)
    XX:   -27.0279     YY:   -27.4642     ZZ:   -31.6316
    XY:    -5.3170     XZ:    -1.4479     YZ:     1.6873

  Traceless Quadrupole Moment: (Debye Ang)
    XX:     1.6800     YY:     1.2437     ZZ:    -2.9237
    XY:    -5.3170     XZ:    -1.4479     YZ:     1.6873

  Mulliken Charges: (a.u.)
   Center  Symbol    Alpha    Beta     Spin     Total
       1     H     0.28062  0.28062  0.00000  0.43876
       2     O     4.36450  4.36450  0.00000 -0.72900
       3     C     2.99846  2.99846  0.00000  0.00309
       4     C     2.99315  2.99315  0.00000  0.01371
       5     H     0.42491  0.42491  0.00000  0.15019
       6     H     0.43281  0.43281  0.00000  0.13438
       7     O     4.29674  4.29674  0.00000 -0.59347
       8     H     0.42659  0.42659  0.00000  0.14681
       9     H     0.43136  0.43136  0.00000  0.13727
      10     C     3.07907  3.07907  0.00000 -0.15815
      11     H     0.42921  0.42921  0.00000  0.14157
      12     H     0.41052  0.41052  0.00000  0.17897
      13     H     0.43207  0.43207  0.00000  0.13587

   Total alpha = 21.00000, Total beta = 21.00000, Total charge =  0.00000


*** PSI4 exiting successfully. Buy a developer a beer!
