    -----------------------------------------------------------------------
          Psi4: An Open-Source Ab Initio Electronic Structure Package
                              Psi4 (no tag) Driver

                          Git: Rev {detached?}  

    J. M. Turney, A. C. Simmonett, R. M. Parrish, E. G. Hohenstein,
    F. A. Evangelista, J. T. Fermann, B. J. Mintz, L. A. Burns, J. J. Wilke,
    M. L. Abrams, N. J. Russ, M. L. Leininger, C. L. Janssen, E. T. Seidl,
    W. D. Allen, H. F. Schaefer, R. A. King, E. F. Valeev, C. D. Sherrill,
    and T. D. Crawford, WIREs Comput. Mol. Sci. 2, 556-565 (2012)
    (doi: 10.1002/wcms.93)

                         Additional Contributions by
    A. E. DePrince, M. Saitow, U. Bozkaya, A. Yu. Sokolov
    -----------------------------------------------------------------------


    Psi4 started on: Tue Jul 26 13:27:39 2016

    Process ID:   9106
    PSI4DATADIR: /export131/home/mjharvey/miniconda3/share
    Memory level set to 256.000 MB

  ==> Input File <==

--------------------------------------------------------------------------
set {
	reference rhf
	basis 6-31G*
}


set_num_threads( 24 )
memory 2 gb

molecule MOL {
0 1

H	 -3.793000	 1.004000	 -0.340000
C	 -3.097000	 0.384000	 0.191000
C	 -1.977000	 0.015000	 -0.386000
H	 -3.341000	 0.079000	 1.192000
O	 -1.081000	 -0.797000	 0.234000
H	 -1.712000	 0.315000	 -1.384000
C	 0.151000	 -0.997000	 -0.369000
C	 1.143000	 0.077000	 0.017000
H	 0.082000	 -1.019000	 -1.451000
H	 0.537000	 -1.944000	 -0.023000
F	 2.141066	 -0.468374	 0.697006
F	 1.659807	 0.671986	 -1.044983
F	 0.596950	 1.006327	 0.772969

	symmetry c1
}
set optking {
	frozen_dihedral = ("
		3 5 7 9,
		6 3 2 1,
		6 3 5 7
	")
}

ee = energy('scf')
oeprop('DIPOLE', 'QUADRUPOLE', 'MULLIKEN_CHARGES')
f=open( 'psi4out.xyz', 'w' )
f.write( "13  " )
f.write( str(ee) + "\n" )
f.write( MOL.save_string_xyz() )
f.close()
--------------------------------------------------------------------------

  Memory set to   2.000 GiB by Python script.

*** tstart() called on cx1b.hpc.ic.ac.uk
*** at Tue Jul 26 13:27:39 2016


         ---------------------------------------------------------
                                   SCF
            by Justin Turney, Rob Parrish, and Andy Simmonett
                              RHF Reference
                       24 Threads,   2000 MiB Core
         ---------------------------------------------------------

  ==> Geometry <==

    Molecular point group: c1
    Full point group: C1

    Geometry (in Angstrom), charge = 0, multiplicity = 1:

       Center              X                  Y                   Z               Mass       
    ------------   -----------------  -----------------  -----------------  -----------------
           H         -3.893054038837     0.984879709417    -0.365639146497     1.007825032070
           C         -3.197054038837     0.364879709417     0.165360853503    12.000000000000
           C         -2.077054038837    -0.004120290583    -0.411639146497    12.000000000000
           H         -3.441054038837     0.059879709417     1.166360853503     1.007825032070
           O         -1.181054038837    -0.816120290583     0.208360853503    15.994914619560
           H         -1.812054038837     0.295879709417    -1.409639146497     1.007825032070
           C          0.050945961163    -1.016120290583    -0.394639146497    12.000000000000
           C          1.042945961163     0.057879709417    -0.008639146497    12.000000000000
           H         -0.018054038837    -1.038120290583    -1.476639146497     1.007825032070
           H          0.436945961163    -1.963120290583    -0.048639146497     1.007825032070
           F          2.041011961163    -0.487494290583     0.671366853503    18.998403224000
           F          1.559752961163     0.652865709417    -1.070622146497    18.998403224000
           F          0.496895961163     0.987206709417     0.747329853503    18.998403224000

  Running in c1 symmetry.

  Rotational constants: A =      0.14877  B =      0.03995  C =      0.03896 [cm^-1]
  Rotational constants: A =   4459.86564  B =   1197.60912  C =   1167.90274 [MHz]
  Nuclear repulsion =  413.959865651826078

  Charge       = 0
  Multiplicity = 1
  Electrons    = 64
  Nalpha       = 32
  Nbeta        = 32

  ==> Algorithm <==

  SCF Algorithm Type is DF.
  DIIS enabled.
  MOM disabled.
  Fractional occupation disabled.
  Guess Type is CORE.
  Energy threshold   = 1.00e-06
  Density threshold  = 1.00e-06
  Integral threshold = 0.00e+00

  ==> Primary Basis <==

  Basis Set: 6-31G*
    Number of shells: 58
    Number of basis function: 130
    Number of Cartesian functions: 130
    Spherical Harmonics?: false
    Max angular momentum: 2

  ==> Pre-Iterations <==

   -------------------------------------------------------
    Irrep   Nso     Nmo     Nalpha   Nbeta   Ndocc  Nsocc
   -------------------------------------------------------
     A        130     130       0       0       0       0
   -------------------------------------------------------
    Total     130     130      32      32      32       0
   -------------------------------------------------------

 OEINTS: Overlap, kinetic, potential, dipole, and quadrupole integrals
         stored in file 35.

  ==> Integral Setup <==

  ==> DFJK: Density-Fitted J/K Matrices <==

    J tasked:                  Yes
    K tasked:                  Yes
    wK tasked:                  No
    OpenMP threads:             24
    Integrals threads:          24
    Memory (MB):              1430
    Algorithm:                Core
    Integral Cache:           NONE
    Schwarz Cutoff:          1E-12
    Fitting Condition:       1E-12

   => Auxiliary Basis Set <=

  Basis Set: 
    Number of shells: 237
    Number of basis function: 773
    Number of Cartesian functions: 773
    Spherical Harmonics?: false
    Max angular momentum: 3

  Minimum eigenvalue in the overlap matrix is 1.6697743530E-03.
  Using Symmetric Orthogonalization.
  SCF Guess: Core (One-Electron) Hamiltonian.

  ==> Iterations <==

                           Total Energy        Delta E     RMS |[F,P]|

   @DF-RHF iter   1:  -440.66650675943612   -4.40667e+02   7.38727e-02 
   @DF-RHF iter   2:  -175.64977977113841    2.65017e+02   9.72938e-02 DIIS
   @DF-RHF iter   3:  -490.65872237172533   -3.15009e+02   3.94367e-02 DIIS
   @DF-RHF iter   4:  -421.24569238994656    6.94130e+01   6.90245e-02 DIIS
   @DF-RHF iter   5:  -522.50475333601185   -1.01259e+02   1.93933e-02 DIIS
   @DF-RHF iter   6:  -527.10862579599598   -4.60387e+00   7.70687e-03 DIIS
   @DF-RHF iter   7:  -527.50531112206636   -3.96685e-01   1.65256e-03 DIIS
   @DF-RHF iter   8:  -527.52364340465806   -1.83323e-02   6.34033e-04 DIIS
   @DF-RHF iter   9:  -527.52720043485192   -3.55703e-03   3.04122e-04 DIIS
   @DF-RHF iter  10:  -527.52789213286928   -6.91698e-04   1.80993e-04 DIIS
   @DF-RHF iter  11:  -527.52824577637716   -3.53644e-04   3.96668e-05 DIIS
   @DF-RHF iter  12:  -527.52826813117304   -2.23548e-05   1.34551e-05 DIIS
   @DF-RHF iter  13:  -527.52827124295186   -3.11178e-06   5.26551e-06 DIIS
   @DF-RHF iter  14:  -527.52827173364540   -4.90694e-07   1.38723e-06 DIIS
   @DF-RHF iter  15:  -527.52827178445887   -5.08135e-08   6.20537e-07 DIIS

  ==> Post-Iterations <==

    Orbital Energies (a.u.)
    -----------------------

    Doubly Occupied:                                                      

       1A    -26.344075     2A    -26.340447     3A    -26.339175  
       4A    -20.605729     5A    -11.501989     6A    -11.315810  
       7A    -11.299312     8A    -11.216217     9A     -1.740959  
      10A     -1.639289    11A     -1.636810    12A     -1.436260  
      13A     -1.083563    14A     -1.016274    15A     -0.923969  
      16A     -0.836738    17A     -0.828839    18A     -0.819058  
      19A     -0.792980    20A     -0.723242    21A     -0.716062  
      22A     -0.693298    23A     -0.674120    24A     -0.660670  
      25A     -0.654160    26A     -0.641481    27A     -0.624956  
      28A     -0.581251    29A     -0.561640    30A     -0.525662  
      31A     -0.512229    32A     -0.351558  

    Virtual:                                                              

      33A      0.188435    34A      0.227020    35A      0.269230  
      36A      0.277766    37A      0.293406    38A      0.309772  
      39A      0.342792    40A      0.416101    41A      0.424012  
      42A      0.458559    43A      0.479693    44A      0.508042  
      45A      0.544191    46A      0.690060    47A      0.698202  
      48A      0.714811    49A      0.741295    50A      0.756030  
      51A      0.775058    52A      0.811684    53A      0.826054  
      54A      0.884081    55A      0.902750    56A      0.926256  
      57A      0.993163    58A      1.076834    59A      1.099370  
      60A      1.132902    61A      1.145585    62A      1.152065  
      63A      1.203807    64A      1.223589    65A      1.236865  
      66A      1.326571    67A      1.347347    68A      1.361037  
      69A      1.402987    70A      1.433399    71A      1.454670  
      72A      1.479432    73A      1.585396    74A      1.616039  
      75A      1.635042    76A      1.646049    77A      1.668019  
      78A      1.668600    79A      1.678312    80A      1.735158  
      81A      1.746332    82A      1.802141    83A      1.881272  
      84A      1.918785    85A      1.942562    86A      1.986295  
      87A      2.023056    88A      2.057574    89A      2.120746  
      90A      2.121587    91A      2.145232    92A      2.153369  
      93A      2.227222    94A      2.261029    95A      2.269512  
      96A      2.296696    97A      2.301579    98A      2.329785  
      99A      2.347164   100A      2.409366   101A      2.414670  
     102A      2.415685   103A      2.451624   104A      2.494270  
     105A      2.552361   106A      2.587622   107A      2.647889  
     108A      2.705062   109A      2.716898   110A      2.815429  
     111A      2.914250   112A      2.930394   113A      2.985272  
     114A      3.092948   115A      3.122976   116A      3.172842  
     117A      3.207612   118A      3.289858   119A      3.412867  
     120A      3.425538   121A      3.448315   122A      3.474753  
     123A      4.342905   124A      4.545705   125A      4.606913  
     126A      4.730523   127A      4.893245   128A      4.953162  
     129A      5.033125   130A      5.876403  

    Final Occupation by Irrep:
              A 
    DOCC [    32 ]

  Energy converged.

  @DF-RHF Final Energy:  -527.52827178445887

   => Energetics <=

    Nuclear Repulsion Energy =            413.9598656518260782
    One-Electron Energy =               -1551.7006433090007249
    Two-Electron Energy =                 610.2125058727161786
    DFT Exchange-Correlation Energy =       0.0000000000000000
    Empirical Dispersion Energy =           0.0000000000000000
    PCM Polarization Energy =               0.0000000000000000
    EFP Energy =                            0.0000000000000000
    Total Energy =                       -527.5282717844585250

    Alert: EFP and PCM quantities not currently incorporated into SCF psivars.

Properties will be evaluated at   0.000000,   0.000000,   0.000000 Bohr
  ==> Properties <==


Properties computed using the SCF density matrix

  Nuclear Dipole Moment: (a.u.)
     X:   -12.0528      Y:    -2.6480      Z:    -2.3281

  Electronic Dipole Moment: (a.u.)
     X:    11.7917      Y:     2.2793      Z:     1.6245

  Dipole Moment: (a.u.)
     X:    -0.2611      Y:    -0.3686      Z:    -0.7036     Total:     0.8361

  Dipole Moment: (Debye)
     X:    -0.6635      Y:    -0.9370      Z:    -1.7884     Total:     2.1252


  Saving occupied orbitals to File 180.

*** tstop() called on cx1b.hpc.ic.ac.uk at Tue Jul 26 13:27:45 2016
Module time:
	user time   =      63.85 seconds =       1.06 minutes
	system time =       2.63 seconds =       0.04 minutes
	total time  =          6 seconds =       0.10 minutes
Total time:
	user time   =      63.85 seconds =       1.06 minutes
	system time =       2.63 seconds =       0.04 minutes
	total time  =          6 seconds =       0.10 minutes


Properties will be evaluated at   0.000000,   0.000000,   0.000000 Bohr

Properties computed using the  density matrix

  Nuclear Dipole Moment: (a.u.)
     X:   -12.0528      Y:    -2.6480      Z:    -2.3281

  Electronic Dipole Moment: (a.u.)
     X:    11.7917      Y:     2.2793      Z:     1.6245

  Dipole Moment: (a.u.)
     X:    -0.2611      Y:    -0.3686      Z:    -0.7036     Total:     0.8361

  Dipole Moment: (Debye)
     X:    -0.6635      Y:    -0.9370      Z:    -1.7884     Total:     2.1252

  Quadrupole Moment: (Debye Ang)
    XX:   -45.8895     YY:   -44.3557     ZZ:   -43.3772
    XY:    -3.2164     XZ:     0.8597     YZ:     0.5975

  Traceless Quadrupole Moment: (Debye Ang)
    XX:    -1.3487     YY:     0.1851     ZZ:     1.1636
    XY:    -3.2164     XZ:     0.8597     YZ:     0.5975

  Mulliken Charges: (a.u.)
   Center  Symbol    Alpha    Beta     Spin     Total
       1     H     0.40726  0.40726  0.00000  0.18548
       2     C     3.23440  3.23440  0.00000 -0.46881
       3     C     2.89681  2.89681  0.00000  0.20638
       4     H     0.40152  0.40152  0.00000  0.19695
       5     O     4.29850  4.29850  0.00000 -0.59700
       6     H     0.40789  0.40789  0.00000  0.18421
       7     C     3.08758  3.08758  0.00000 -0.17516
       8     C     2.43940  2.43940  0.00000  1.12120
       9     H     0.40165  0.40165  0.00000  0.19669
      10     H     0.38424  0.38424  0.00000  0.23151
      11     F     4.68474  4.68474  0.00000 -0.36948
      12     F     4.68288  4.68288  0.00000 -0.36576
      13     F     4.67311  4.67311  0.00000 -0.34622

   Total alpha = 32.00000, Total beta = 32.00000, Total charge =  0.00000


*** PSI4 exiting successfully. Buy a developer a beer!
