    -----------------------------------------------------------------------
          Psi4: An Open-Source Ab Initio Electronic Structure Package
                              Psi4 (no tag) Driver

                          Git: Rev {detached?}  

    J. M. Turney, A. C. Simmonett, R. M. Parrish, E. G. Hohenstein,
    F. A. Evangelista, J. T. Fermann, B. J. Mintz, L. A. Burns, J. J. Wilke,
    M. L. Abrams, N. J. Russ, M. L. Leininger, C. L. Janssen, E. T. Seidl,
    W. D. Allen, H. F. Schaefer, R. A. King, E. F. Valeev, C. D. Sherrill,
    and T. D. Crawford, WIREs Comput. Mol. Sci. 2, 556-565 (2012)
    (doi: 10.1002/wcms.93)

                         Additional Contributions by
    A. E. DePrince, M. Saitow, U. Bozkaya, A. Yu. Sokolov
    -----------------------------------------------------------------------


    Psi4 started on: Tue Jul  5 16:43:05 2016

    Process ID:   5852
    PSI4DATADIR: /export131/home/mjharvey/miniconda3/share
    Memory level set to 256.000 MB

  ==> Input File <==

--------------------------------------------------------------------------
set {
	reference rhf
	basis 6-31G*
}


set_num_threads( 1 )
memory 2 gb

molecule MOL {
0 1

H	 -3.161837	 0.500524	 -0.000234
C	 -2.367097	 -0.232926	 -0.000000
O	 -1.158440	 0.455814	 -0.000122
H	 -2.468853	 -0.861886	 -0.882833
H	 -2.468942	 -0.861421	 0.883154
C	 -1.058687	 1.440634	 0.983775
C	 -2.308128	 2.303105	 0.942521
H	 -0.171039	 2.051682	 0.814654
H	 -0.948984	 0.979819	 1.966385
C	 -2.336336	 3.233391	 -0.269359
H	 -3.176274	 1.651239	 0.935041
H	 -2.358098	 2.880912	 1.860312
H	 -2.311671	 2.673102	 -1.199892
H	 -3.237789	 3.836892	 -0.273319
H	 -1.487193	 3.911152	 -0.268459

	symmetry c1
}
set optking {
	frozen_dihedral = ("
		6 3 2 4,
		11 7 6 8
	")
}

ee = energy('scf')
oeprop('DIPOLE', 'QUADRUPOLE', 'MULLIKEN_CHARGES')
f=open( 'psi4out.xyz', 'w' )
f.write( "15  " )
f.write( str(ee) + "\n" )
f.write( MOL.save_string_xyz() )
f.close()
--------------------------------------------------------------------------

  Memory set to   2.000 GiB by Python script.

*** tstart() called on cx1-3-16-3.cx1.hpc.ic.ac.uk
*** at Tue Jul  5 16:43:06 2016


         ---------------------------------------------------------
                                   SCF
            by Justin Turney, Rob Parrish, and Andy Simmonett
                              RHF Reference
                        1 Threads,   2000 MiB Core
         ---------------------------------------------------------

  ==> Geometry <==

    Molecular point group: c1
    Full point group: C1

    Geometry (in Angstrom), charge = 0, multiplicity = 1:

       Center              X                  Y                   Z               Mass       
    ------------   -----------------  -----------------  -----------------  -----------------
           H         -1.307814456580    -0.918536902853    -0.320810407704     1.007825032070
           C         -0.513074456580    -1.651986902853    -0.320576407704    12.000000000000
           O          0.695582543420    -0.963246902853    -0.320698407704    15.994914619560
           H         -0.614830456580    -2.280946902853    -1.203409407704     1.007825032070
           H         -0.614919456580    -2.280481902853     0.562577592296     1.007825032070
           C          0.795335543420     0.021573097147     0.663198592296    12.000000000000
           C         -0.454105456580     0.884044097147     0.621944592296    12.000000000000
           H          1.682983543420     0.632621097147     0.494077592296     1.007825032070
           H          0.905038543420    -0.439241902853     1.645808592296     1.007825032070
           C         -0.482313456580     1.814330097147    -0.589935407704    12.000000000000
           H         -1.322251456580     0.232178097147     0.614464592296     1.007825032070
           H         -0.504075456580     1.461851097147     1.539735592296     1.007825032070
           H         -0.457648456580     1.254041097147    -1.520468407704     1.007825032070
           H         -1.383766456580     2.417831097147    -0.593895407704     1.007825032070
           H          0.366829543420     2.492091097147    -0.589035407704     1.007825032070

  Running in c1 symmetry.

  Rotational constants: A =      0.28414  B =      0.11384  C =      0.10217 [cm^-1]
  Rotational constants: A =   8518.22591  B =   3412.87766  C =   3062.92053 [MHz]
  Nuclear repulsion =  198.550681562219239

  Charge       = 0
  Multiplicity = 1
  Electrons    = 42
  Nalpha       = 21
  Nbeta        = 21

  ==> Algorithm <==

  SCF Algorithm Type is DF.
  DIIS enabled.
  MOM disabled.
  Fractional occupation disabled.
  Guess Type is CORE.
  Energy threshold   = 1.00e-06
  Density threshold  = 1.00e-06
  Integral threshold = 0.00e+00

  ==> Primary Basis <==

  Basis Set: 6-31G*
    Number of shells: 50
    Number of basis function: 95
    Number of Cartesian functions: 95
    Spherical Harmonics?: false
    Max angular momentum: 2

  ==> Pre-Iterations <==

   -------------------------------------------------------
    Irrep   Nso     Nmo     Nalpha   Nbeta   Ndocc  Nsocc
   -------------------------------------------------------
     A         95      95       0       0       0       0
   -------------------------------------------------------
    Total      95      95      21      21      21       0
   -------------------------------------------------------

 OEINTS: Overlap, kinetic, potential, dipole, and quadrupole integrals
         stored in file 35.

  ==> Integral Setup <==

  ==> DFJK: Density-Fitted J/K Matrices <==

    J tasked:                  Yes
    K tasked:                  Yes
    wK tasked:                  No
    OpenMP threads:              1
    Integrals threads:           1
    Memory (MB):              1430
    Algorithm:                Core
    Integral Cache:           NONE
    Schwarz Cutoff:          1E-12
    Fitting Condition:       1E-12

   => Auxiliary Basis Set <=

  Basis Set: 
    Number of shells: 210
    Number of basis function: 655
    Number of Cartesian functions: 655
    Spherical Harmonics?: false
    Max angular momentum: 3

  Minimum eigenvalue in the overlap matrix is 5.0552145542E-03.
  Using Symmetric Orthogonalization.
  SCF Guess: Core (One-Electron) Hamiltonian.

  ==> Iterations <==

                           Total Energy        Delta E     RMS |[F,P]|

   @DF-RHF iter   1:  -183.14669756578681   -1.83147e+02   7.99782e-02 
   @DF-RHF iter   2:  -154.63653464117633    2.85102e+01   7.11529e-02 DIIS
   @DF-RHF iter   3:  -203.25529644942154   -4.86188e+01   5.18902e-02 DIIS
   @DF-RHF iter   4:  -223.18943080965235   -1.99341e+01   4.11444e-02 DIIS
   @DF-RHF iter   5:  -231.86663973266886   -8.67721e+00   7.68029e-03 DIIS
   @DF-RHF iter   6:  -232.07480101016600   -2.08161e-01   3.15714e-03 DIIS
   @DF-RHF iter   7:  -232.11294863385163   -3.81476e-02   7.41873e-04 DIIS
   @DF-RHF iter   8:  -232.11572372051867   -2.77509e-03   1.42108e-04 DIIS
   @DF-RHF iter   9:  -232.11586126235912   -1.37542e-04   4.95289e-05 DIIS
   @DF-RHF iter  10:  -232.11587635676042   -1.50944e-05   1.27512e-05 DIIS
   @DF-RHF iter  11:  -232.11587758189600   -1.22514e-06   4.92363e-06 DIIS
   @DF-RHF iter  12:  -232.11587773859523   -1.56699e-07   1.17922e-06 DIIS
   @DF-RHF iter  13:  -232.11587775144037   -1.28451e-08   2.66399e-07 DIIS

  ==> Post-Iterations <==

    Orbital Energies (a.u.)
    -----------------------

    Doubly Occupied:                                                      

       1A    -20.551952     2A    -11.267654     3A    -11.260944  
       4A    -11.214584     5A    -11.210385     6A     -1.380198  
       7A     -1.053768     8A     -0.961730     9A     -0.896399  
      10A     -0.790438    11A     -0.688797    12A     -0.664741  
      13A     -0.627649    14A     -0.594596    15A     -0.569786  
      16A     -0.538516    17A     -0.523742    18A     -0.498660  
      19A     -0.480697    20A     -0.443583    21A     -0.404793  

    Virtual:                                                              

      22A      0.235337    23A      0.274166    24A      0.282601  
      25A      0.290184    26A      0.295261    27A      0.318895  
      28A      0.329861    29A      0.341926    30A      0.354352  
      31A      0.364905    32A      0.389097    33A      0.422110  
      34A      0.441877    35A      0.463700    36A      0.704914  
      37A      0.721780    38A      0.750132    39A      0.773228  
      40A      0.797016    41A      0.811706    42A      0.865079  
      43A      0.915269    44A      0.943382    45A      0.968082  
      46A      1.008849    47A      1.101655    48A      1.116206  
      49A      1.134388    50A      1.142366    51A      1.154835  
      52A      1.165536    53A      1.191537    54A      1.207489  
      55A      1.228322    56A      1.243459    57A      1.264794  
      58A      1.275671    59A      1.280962    60A      1.433188  
      61A      1.468171    62A      1.518353    63A      1.639311  
      64A      1.677941    65A      1.740304    66A      1.825428  
      67A      1.878949    68A      1.913924    69A      1.990815  
      70A      2.118415    71A      2.178255    72A      2.232008  
      73A      2.276664    74A      2.319789    75A      2.397235  
      76A      2.454368    77A      2.474420    78A      2.497370  
      79A      2.514730    80A      2.591667    81A      2.619959  
      82A      2.704740    83A      2.717396    84A      2.745914  
      85A      2.863228    86A      2.924951    87A      2.959504  
      88A      3.056321    89A      3.154617    90A      3.310606  
      91A      4.373139    92A      4.594111    93A      4.680961  
      94A      4.783570    95A      4.935424  

    Final Occupation by Irrep:
              A 
    DOCC [    21 ]

  Energy converged.

  @DF-RHF Final Energy:  -232.11587775144037

   => Energetics <=

    Nuclear Repulsion Energy =            198.5506815622192391
    One-Electron Energy =                -708.0858212630720345
    Two-Electron Energy =                 277.4192619494132259
    DFT Exchange-Correlation Energy =       0.0000000000000000
    Empirical Dispersion Energy =           0.0000000000000000
    PCM Polarization Energy =               0.0000000000000000
    EFP Energy =                            0.0000000000000000
    Total Energy =                       -232.1158777514395979

    Alert: EFP and PCM quantities not currently incorporated into SCF psivars.

Properties will be evaluated at   0.000000,   0.000000,   0.000000 Bohr
  ==> Properties <==


Properties computed using the SCF density matrix

  Nuclear Dipole Moment: (a.u.)
     X:    -3.0439      Y:     2.4060      Z:     0.5882

  Electronic Dipole Moment: (a.u.)
     X:     2.5700      Y:    -2.2529      Z:    -0.2367

  Dipole Moment: (a.u.)
     X:    -0.4739      Y:     0.1531      Z:     0.3515     Total:     0.6095

  Dipole Moment: (Debye)
     X:    -1.2044      Y:     0.3890      Z:     0.8934     Total:     1.5492


  Saving occupied orbitals to File 180.

*** tstop() called on cx1-3-16-3.cx1.hpc.ic.ac.uk at Tue Jul  5 16:43:11 2016
Module time:
	user time   =       5.16 seconds =       0.09 minutes
	system time =       0.04 seconds =       0.00 minutes
	total time  =          5 seconds =       0.08 minutes
Total time:
	user time   =       5.16 seconds =       0.09 minutes
	system time =       0.04 seconds =       0.00 minutes
	total time  =          5 seconds =       0.08 minutes


Properties will be evaluated at   0.000000,   0.000000,   0.000000 Bohr

Properties computed using the  density matrix

  Nuclear Dipole Moment: (a.u.)
     X:    -3.0439      Y:     2.4060      Z:     0.5882

  Electronic Dipole Moment: (a.u.)
     X:     2.5700      Y:    -2.2529      Z:    -0.2367

  Dipole Moment: (a.u.)
     X:    -0.4739      Y:     0.1531      Z:     0.3515     Total:     0.6095

  Dipole Moment: (Debye)
     X:    -1.2044      Y:     0.3890      Z:     0.8934     Total:     1.5492

  Quadrupole Moment: (Debye Ang)
    XX:   -33.6436     YY:   -32.8462     ZZ:   -33.3525
    XY:     2.8190     XZ:     1.5042     YZ:     0.0894

  Traceless Quadrupole Moment: (Debye Ang)
    XX:    -0.3629     YY:     0.4346     ZZ:    -0.0717
    XY:     2.8190     XZ:     1.5042     YZ:     0.0894

  Mulliken Charges: (a.u.)
   Center  Symbol    Alpha    Beta     Spin     Total
       1     H     0.42718  0.42718  0.00000  0.14565
       2     C     3.08420  3.08420  0.00000 -0.16841
       3     O     4.30338  4.30338  0.00000 -0.60675
       4     H     0.41204  0.41204  0.00000  0.17593
       5     H     0.43002  0.43002  0.00000  0.13995
       6     C     2.98818  2.98818  0.00000  0.02364
       7     C     3.18497  3.18497  0.00000 -0.36993
       8     H     0.41475  0.41475  0.00000  0.17049
       9     H     0.42881  0.42881  0.00000  0.14237
      10     C     3.24034  3.24034  0.00000 -0.48069
      11     H     0.41444  0.41444  0.00000  0.17113
      12     H     0.41961  0.41961  0.00000  0.16078
      13     H     0.41272  0.41272  0.00000  0.17457
      14     H     0.41929  0.41929  0.00000  0.16142
      15     H     0.42007  0.42007  0.00000  0.15986

   Total alpha = 21.00000, Total beta = 21.00000, Total charge =  0.00000


*** PSI4 exiting successfully. Buy a developer a beer!
