    -----------------------------------------------------------------------
          Psi4: An Open-Source Ab Initio Electronic Structure Package
                              Psi4 (no tag) Driver

                          Git: Rev {detached?}  

    J. M. Turney, A. C. Simmonett, R. M. Parrish, E. G. Hohenstein,
    F. A. Evangelista, J. T. Fermann, B. J. Mintz, L. A. Burns, J. J. Wilke,
    M. L. Abrams, N. J. Russ, M. L. Leininger, C. L. Janssen, E. T. Seidl,
    W. D. Allen, H. F. Schaefer, R. A. King, E. F. Valeev, C. D. Sherrill,
    and T. D. Crawford, WIREs Comput. Mol. Sci. 2, 556-565 (2012)
    (doi: 10.1002/wcms.93)

                         Additional Contributions by
    A. E. DePrince, M. Saitow, U. Bozkaya, A. Yu. Sokolov
    -----------------------------------------------------------------------


    Psi4 started on: Tue Jul  5 16:21:14 2016

    Process ID:  19174
    PSI4DATADIR: /export131/home/mjharvey/miniconda3/share
    Memory level set to 256.000 MB

  ==> Input File <==

--------------------------------------------------------------------------
set {
	reference rhf
	basis 6-31G*
}


set_num_threads( 1 )
memory 2 gb

molecule MOL {
0 1

H	 -0.987972	 0.468722	 -0.937286
N	 -0.712432	 0.000013	 -0.096310
C	 0.734192	 -0.000004	 0.040609
H	 -1.061796	 -0.936483	 -0.157771
H	 1.139899	 -0.873598	 -0.456463
H	 1.139939	 0.873831	 -0.456100
H	 1.096456	 -0.000300	 1.069655

	symmetry c1
}
ee = energy('scf')
oeprop('DIPOLE', 'QUADRUPOLE', 'MULLIKEN_CHARGES')
f=open( 'psi4out.xyz', 'w' )
f.write( "7  " )
f.write( str(ee) + "\n" )
f.write( MOL.save_string_xyz() )
f.close()
--------------------------------------------------------------------------

  Memory set to   2.000 GiB by Python script.

*** tstart() called on cx1-3-15-2.cx1.hpc.ic.ac.uk
*** at Tue Jul  5 16:21:15 2016


         ---------------------------------------------------------
                                   SCF
            by Justin Turney, Rob Parrish, and Andy Simmonett
                              RHF Reference
                        1 Threads,   2000 MiB Core
         ---------------------------------------------------------

  ==> Geometry <==

    Molecular point group: c1
    Full point group: C1

    Geometry (in Angstrom), charge = 0, multiplicity = 1:

       Center              X                  Y                   Z               Mass       
    ------------   -----------------  -----------------  -----------------  -----------------
           H         -0.993479731208     0.483906321402    -0.879086751487     1.007825032070
           N         -0.717939731208     0.015197321402    -0.038110751487    14.003074004780
           C          0.728684268792     0.015180321402     0.098808248513    12.000000000000
           H         -1.067303731208    -0.921298678598    -0.099571751487     1.007825032070
           H          1.134391268792    -0.858413678598    -0.398263751487     1.007825032070
           H          1.134431268792     0.889015321402    -0.397900751487     1.007825032070
           H          1.090948268792     0.014884321402     1.127854248513     1.007825032070

  Running in c1 symmetry.

  Rotational constants: A =      3.53221  B =      0.77179  C =      0.74048 [cm^-1]
  Rotational constants: A = 105892.96656  B =  23137.73033  C =  22199.11932 [MHz]
  Nuclear repulsion =   42.347432480440780

  Charge       = 0
  Multiplicity = 1
  Electrons    = 18
  Nalpha       = 9
  Nbeta        = 9

  ==> Algorithm <==

  SCF Algorithm Type is DF.
  DIIS enabled.
  MOM disabled.
  Fractional occupation disabled.
  Guess Type is CORE.
  Energy threshold   = 1.00e-06
  Density threshold  = 1.00e-06
  Integral threshold = 0.00e+00

  ==> Primary Basis <==

  Basis Set: 6-31G*
    Number of shells: 22
    Number of basis function: 40
    Number of Cartesian functions: 40
    Spherical Harmonics?: false
    Max angular momentum: 2

  ==> Pre-Iterations <==

   -------------------------------------------------------
    Irrep   Nso     Nmo     Nalpha   Nbeta   Ndocc  Nsocc
   -------------------------------------------------------
     A         40      40       0       0       0       0
   -------------------------------------------------------
    Total      40      40       9       9       9       0
   -------------------------------------------------------

 OEINTS: Overlap, kinetic, potential, dipole, and quadrupole integrals
         stored in file 35.

  ==> Integral Setup <==

  ==> DFJK: Density-Fitted J/K Matrices <==

    J tasked:                  Yes
    K tasked:                  Yes
    wK tasked:                  No
    OpenMP threads:              1
    Integrals threads:           1
    Memory (MB):              1430
    Algorithm:                Core
    Integral Cache:           NONE
    Schwarz Cutoff:          1E-12
    Fitting Condition:       1E-12

   => Auxiliary Basis Set <=

  Basis Set: 
    Number of shells: 93
    Number of basis function: 287
    Number of Cartesian functions: 287
    Spherical Harmonics?: false
    Max angular momentum: 3

  Minimum eigenvalue in the overlap matrix is 8.8002012727E-03.
  Using Symmetric Orthogonalization.
  SCF Guess: Core (One-Electron) Hamiltonian.

  ==> Iterations <==

                           Total Energy        Delta E     RMS |[F,P]|

   @DF-RHF iter   1:   -79.81345836353631   -7.98135e+01   1.10402e-01 
   @DF-RHF iter   2:   -82.99990625264948   -3.18645e+00   7.36404e-02 DIIS
   @DF-RHF iter   3:   -93.89071776069551   -1.08908e+01   4.22738e-02 DIIS
   @DF-RHF iter   4:   -94.99706038784475   -1.10634e+00   1.56663e-02 DIIS
   @DF-RHF iter   5:   -95.17683364926103   -1.79773e-01   5.99936e-03 DIIS
   @DF-RHF iter   6:   -95.20550432878386   -2.86707e-02   6.16321e-04 DIIS
   @DF-RHF iter   7:   -95.20610338310792   -5.99054e-04   2.51678e-04 DIIS
   @DF-RHF iter   8:   -95.20617918751287   -7.58044e-05   4.25434e-05 DIIS
   @DF-RHF iter   9:   -95.20618192667411   -2.73916e-06   7.84255e-06 DIIS
   @DF-RHF iter  10:   -95.20618203598099   -1.09307e-07   1.82307e-06 DIIS
   @DF-RHF iter  11:   -95.20618204165879   -5.67780e-09   3.53501e-07 DIIS

  ==> Post-Iterations <==

    Orbital Energies (a.u.)
    -----------------------

    Doubly Occupied:                                                      

       1A    -15.532902     2A    -11.237955     3A     -1.170580  
       4A     -0.895965     5A     -0.665037     6A     -0.596698  
       7A     -0.565750     8A     -0.517390     9A     -0.379788  

    Virtual:                                                              

      10A      0.226049    11A      0.286375    12A      0.287476  
      13A      0.337858    14A      0.366753    15A      0.422014  
      16A      0.761153    17A      0.780574    18A      0.788324  
      19A      0.994206    20A      1.002233    21A      1.056138  
      22A      1.150643    23A      1.181929    24A      1.215231  
      25A      1.239590    26A      1.257014    27A      1.284670  
      28A      1.624231    29A      1.789538    30A      1.800045  
      31A      2.277803    32A      2.354222    33A      2.394029  
      34A      2.521691    35A      2.608679    36A      2.728323  
      37A      2.868258    38A      3.019262    39A      4.197613  
      40A      4.679387  

    Final Occupation by Irrep:
              A 
    DOCC [     9 ]

  Energy converged.

  @DF-RHF Final Energy:   -95.20618204165879

   => Energetics <=

    Nuclear Repulsion Energy =             42.3474324804407800
    One-Electron Energy =                -211.9830587894960274
    Two-Electron Energy =                  74.4294442673964340
    DFT Exchange-Correlation Energy =       0.0000000000000000
    Empirical Dispersion Energy =           0.0000000000000000
    PCM Polarization Energy =               0.0000000000000000
    EFP Energy =                            0.0000000000000000
    Total Energy =                        -95.2061820416588205

    Alert: EFP and PCM quantities not currently incorporated into SCF psivars.

Properties will be evaluated at   0.000000,   0.000000,   0.000000 Bohr
  ==> Properties <==


Properties computed using the SCF density matrix

  Nuclear Dipole Moment: (a.u.)
     X:     1.2198      Y:    -0.3674      Z:    -0.6064

  Electronic Dipole Moment: (a.u.)
     X:    -0.9984      Y:     0.0858      Z:     0.0764

  Dipole Moment: (a.u.)
     X:     0.2214      Y:    -0.2816      Z:    -0.5300     Total:     0.6397

  Dipole Moment: (Debye)
     X:     0.5628      Y:    -0.7158      Z:    -1.3472     Total:     1.6261


  Saving occupied orbitals to File 180.

*** tstop() called on cx1-3-15-2.cx1.hpc.ic.ac.uk at Tue Jul  5 16:21:16 2016
Module time:
	user time   =       0.87 seconds =       0.01 minutes
	system time =       0.01 seconds =       0.00 minutes
	total time  =          1 seconds =       0.02 minutes
Total time:
	user time   =       0.87 seconds =       0.01 minutes
	system time =       0.01 seconds =       0.00 minutes
	total time  =          1 seconds =       0.02 minutes


Properties will be evaluated at   0.000000,   0.000000,   0.000000 Bohr

Properties computed using the  density matrix

  Nuclear Dipole Moment: (a.u.)
     X:     1.2198      Y:    -0.3674      Z:    -0.6064

  Electronic Dipole Moment: (a.u.)
     X:    -0.9984      Y:     0.0858      Z:     0.0764

  Dipole Moment: (a.u.)
     X:     0.2214      Y:    -0.2816      Z:    -0.5300     Total:     0.6397

  Dipole Moment: (Debye)
     X:     0.5628      Y:    -0.7158      Z:    -1.3472     Total:     1.6261

  Quadrupole Moment: (Debye Ang)
    XX:   -14.4736     YY:   -13.0937     ZZ:   -13.8196
    XY:     1.2462     XZ:     1.9104     YZ:    -0.8785

  Traceless Quadrupole Moment: (Debye Ang)
    XX:    -0.6780     YY:     0.7019     ZZ:    -0.0239
    XY:     1.2462     XZ:     1.9104     YZ:    -0.8785

  Mulliken Charges: (a.u.)
   Center  Symbol    Alpha    Beta     Spin     Total
       1     H     0.33237  0.33237  0.00000  0.33527
       2     N     3.92008  3.92008  0.00000 -0.84017
       3     C     3.14529  3.14529  0.00000 -0.29058
       4     H     0.33294  0.33294  0.00000  0.33412
       5     H     0.43126  0.43126  0.00000  0.13749
       6     H     0.42091  0.42091  0.00000  0.15819
       7     H     0.41716  0.41716  0.00000  0.16569

   Total alpha =  9.00000, Total beta =  9.00000, Total charge = -0.00000


*** PSI4 exiting successfully. Buy a developer a beer!
