    -----------------------------------------------------------------------
          Psi4: An Open-Source Ab Initio Electronic Structure Package
                              Psi4 (no tag) Driver

                          Git: Rev {detached?}  

    J. M. Turney, A. C. Simmonett, R. M. Parrish, E. G. Hohenstein,
    F. A. Evangelista, J. T. Fermann, B. J. Mintz, L. A. Burns, J. J. Wilke,
    M. L. Abrams, N. J. Russ, M. L. Leininger, C. L. Janssen, E. T. Seidl,
    W. D. Allen, H. F. Schaefer, R. A. King, E. F. Valeev, C. D. Sherrill,
    and T. D. Crawford, WIREs Comput. Mol. Sci. 2, 556-565 (2012)
    (doi: 10.1002/wcms.93)

                         Additional Contributions by
    A. E. DePrince, M. Saitow, U. Bozkaya, A. Yu. Sokolov
    -----------------------------------------------------------------------


    Psi4 started on: Tue Jul  5 17:06:16 2016

    Process ID:  17429
    PSI4DATADIR: /export131/home/mjharvey/miniconda3/share
    Memory level set to 256.000 MB

  ==> Input File <==

--------------------------------------------------------------------------
set {
	reference rhf
	basis 6-31G*
}


set_num_threads( 1 )
memory 2 gb

molecule MOL {
0 1

H	 -0.000158	 1.970498	 0.756846
O	 -0.000074	 1.880206	 -0.189275
C	 -0.000015	 0.544847	 -0.545111
C	 -1.146713	 -0.178430	 0.153418
C	 1.372058	 -0.064025	 -0.275501
H	 -0.178470	 0.486751	 -1.608540
F	 -0.866707	 -0.320570	 1.431283
F	 -2.283501	 0.477750	 0.055953
F	 -1.322201	 -1.386287	 -0.358327
F	 2.283717	 0.570380	 -0.981153
F	 1.423530	 -1.339565	 -0.596012
F	 1.696156	 0.053849	 1.002248

	symmetry c1
}
set optking {
	frozen_dihedral = ("
		6 3 2 1
	")
}

ee = energy('scf')
oeprop('DIPOLE', 'QUADRUPOLE', 'MULLIKEN_CHARGES')
f=open( 'psi4out.xyz', 'w' )
f.write( "12  " )
f.write( str(ee) + "\n" )
f.write( MOL.save_string_xyz() )
f.close()
--------------------------------------------------------------------------

  Memory set to   2.000 GiB by Python script.

*** tstart() called on cx1-3-4-4.cx1.hpc.ic.ac.uk
*** at Tue Jul  5 17:06:17 2016


         ---------------------------------------------------------
                                   SCF
            by Justin Turney, Rob Parrish, and Andy Simmonett
                              RHF Reference
                        1 Threads,   2000 MiB Core
         ---------------------------------------------------------

  ==> Geometry <==

    Molecular point group: c1
    Full point group: C1

    Geometry (in Angstrom), charge = 0, multiplicity = 1:

       Center              X                  Y                   Z               Mass       
    ------------   -----------------  -----------------  -----------------  -----------------
           H         -0.120455807388     1.975036048840     0.764983813040     1.007825032070
           O         -0.120371807388     1.884744048840    -0.181137186960    15.994914619560
           C         -0.120312807388     0.549385048840    -0.536973186960    12.000000000000
           C         -1.267010807388    -0.173891951160     0.161555813040    12.000000000000
           C          1.251760192612    -0.059486951160    -0.267363186960    12.000000000000
           H         -0.298767807388     0.491289048840    -1.600402186960     1.007825032070
           F         -0.987004807388    -0.316031951160     1.439420813040    18.998403224000
           F         -2.403798807388     0.482288048840     0.064090813040    18.998403224000
           F         -1.442498807388    -1.381748951160    -0.350189186960    18.998403224000
           F          2.163419192612     0.574918048840    -0.973015186960    18.998403224000
           F          1.303232192612    -1.335026951160    -0.587874186960    18.998403224000
           F          1.575858192612     0.058387048840     1.010385813040    18.998403224000

  Running in c1 symmetry.

  Rotational constants: A =      0.07240  B =      0.03592  C =      0.03174 [cm^-1]
  Rotational constants: A =   2170.59122  B =   1076.79374  C =    951.61852 [MHz]
  Nuclear repulsion =  671.213917202580546

  Charge       = 0
  Multiplicity = 1
  Electrons    = 82
  Nalpha       = 41
  Nbeta        = 41

  ==> Algorithm <==

  SCF Algorithm Type is DF.
  DIIS enabled.
  MOM disabled.
  Fractional occupation disabled.
  Guess Type is CORE.
  Energy threshold   = 1.00e-06
  Density threshold  = 1.00e-06
  Integral threshold = 0.00e+00

  ==> Primary Basis <==

  Basis Set: 6-31G*
    Number of shells: 64
    Number of basis function: 154
    Number of Cartesian functions: 154
    Spherical Harmonics?: false
    Max angular momentum: 2

  ==> Pre-Iterations <==

   -------------------------------------------------------
    Irrep   Nso     Nmo     Nalpha   Nbeta   Ndocc  Nsocc
   -------------------------------------------------------
     A        154     154       0       0       0       0
   -------------------------------------------------------
    Total     154     154      41      41      41       0
   -------------------------------------------------------

 OEINTS: Overlap, kinetic, potential, dipole, and quadrupole integrals
         stored in file 35.

  ==> Integral Setup <==

  ==> DFJK: Density-Fitted J/K Matrices <==

    J tasked:                  Yes
    K tasked:                  Yes
    wK tasked:                  No
    OpenMP threads:              1
    Integrals threads:           1
    Memory (MB):              1430
    Algorithm:                Core
    Integral Cache:           NONE
    Schwarz Cutoff:          1E-12
    Fitting Condition:       1E-12

   => Auxiliary Basis Set <=

  Basis Set: 
    Number of shells: 258
    Number of basis function: 860
    Number of Cartesian functions: 860
    Spherical Harmonics?: false
    Max angular momentum: 3

  Minimum eigenvalue in the overlap matrix is 1.6515245605E-03.
  Using Symmetric Orthogonalization.
  SCF Guess: Core (One-Electron) Hamiltonian.

  ==> Iterations <==

                           Total Energy        Delta E     RMS |[F,P]|

   @DF-RHF iter   1:  -705.71841677373288   -7.05718e+02   6.72455e-02 
   @DF-RHF iter   2:  -598.86898348050715    1.06849e+02   7.93091e-02 DIIS
   @DF-RHF iter   3:  -735.54950582860499   -1.36681e+02   4.69391e-02 DIIS
   @DF-RHF iter   4:  -736.21321615134809   -6.63710e-01   4.92988e-02 DIIS
   @DF-RHF iter   5:  -780.30725097928678   -4.40940e+01   2.02020e-02 DIIS
   @DF-RHF iter   6:  -785.38531873317572   -5.07807e+00   9.23479e-03 DIIS
   @DF-RHF iter   7:  -786.23561981636919   -8.50301e-01   1.87383e-03 DIIS
   @DF-RHF iter   8:  -786.27186758602772   -3.62478e-02   5.49529e-04 DIIS
   @DF-RHF iter   9:  -786.27551434320355   -3.64676e-03   2.28589e-04 DIIS
   @DF-RHF iter  10:  -786.27611432469314   -5.99981e-04   5.41858e-05 DIIS
   @DF-RHF iter  11:  -786.27615108607267   -3.67614e-05   1.97971e-05 DIIS
   @DF-RHF iter  12:  -786.27615662409733   -5.53802e-06   6.69125e-06 DIIS
   @DF-RHF iter  13:  -786.27615730296077   -6.78863e-07   1.22244e-06 DIIS
   @DF-RHF iter  14:  -786.27615733454184   -3.15811e-08   3.53477e-07 DIIS

  ==> Post-Iterations <==

    Orbital Energies (a.u.)
    -----------------------

    Doubly Occupied:                                                      

       1A    -26.364973     2A    -26.363404     3A    -26.361186  
       4A    -26.359267     5A    -26.358496     6A    -26.356717  
       7A    -20.617053     8A    -11.527497     9A    -11.524653  
      10A    -11.348966    11A     -1.765443    12A     -1.757918  
      13A     -1.662924    14A     -1.659035    15A     -1.655281  
      16A     -1.653740    17A     -1.435725    18A     -1.101699  
      19A     -0.996936    20A     -0.938426    21A     -0.864000  
      22A     -0.862599    23A     -0.852005    24A     -0.843658  
      25A     -0.832206    26A     -0.814493    27A     -0.744027  
      28A     -0.728715    29A     -0.723176    30A     -0.717286  
      31A     -0.689148    32A     -0.685361    33A     -0.684219  
      34A     -0.673500    35A     -0.668719    36A     -0.663474  
      37A     -0.655797    38A     -0.653265    39A     -0.621076  
      40A     -0.549287    41A     -0.506697  

    Virtual:                                                              

      42A      0.212546    43A      0.244943    44A      0.291675  
      45A      0.338639    46A      0.363198    47A      0.405233  
      48A      0.451677    49A      0.461859    50A      0.467179  
      51A      0.530716    52A      0.535756    53A      0.664508  
      54A      0.672261    55A      0.722772    56A      0.731503  
      57A      0.741560    58A      0.790759    59A      0.792488  
      60A      0.842065    61A      0.909402    62A      0.949967  
      63A      1.056494    64A      1.106665    65A      1.131464  
      66A      1.166324    67A      1.235412    68A      1.241496  
      69A      1.276658    70A      1.326460    71A      1.350020  
      72A      1.358080    73A      1.362013    74A      1.378646  
      75A      1.452378    76A      1.456363    77A      1.518895  
      78A      1.572713    79A      1.581379    80A      1.587496  
      81A      1.606796    82A      1.609279    83A      1.622345  
      84A      1.642856    85A      1.654996    86A      1.659114  
      87A      1.660672    88A      1.675017    89A      1.705310  
      90A      1.729520    91A      1.753299    92A      1.780721  
      93A      1.858896    94A      1.887803    95A      1.897345  
      96A      1.937812    97A      1.972331    98A      1.978264  
      99A      1.989987   100A      2.096605   101A      2.106594  
     102A      2.114182   103A      2.120615   104A      2.126382  
     105A      2.137069   106A      2.152576   107A      2.171627  
     108A      2.189179   109A      2.282430   110A      2.308270  
     111A      2.320558   112A      2.327305   113A      2.341925  
     114A      2.359094   115A      2.391504   116A      2.401433  
     117A      2.402160   118A      2.440253   119A      2.461645  
     120A      2.478907   121A      2.532729   122A      2.543474  
     123A      2.582352   124A      2.617666   125A      2.664221  
     126A      2.681490   127A      2.717627   128A      2.799215  
     129A      2.854792   130A      2.908963   131A      2.960784  
     132A      3.057950   133A      3.141890   134A      3.171286  
     135A      3.193904   136A      3.239962   137A      3.270664  
     138A      3.333282   139A      3.405551   140A      3.415095  
     141A      3.437153   142A      3.451450   143A      3.459955  
     144A      3.471349   145A      4.179204   146A      4.623818  
     147A      4.755699   148A      4.816470   149A      5.013810  
     150A      5.107026   151A      5.300542   152A      5.683692  
     153A      5.802421   154A      6.214890  

    Final Occupation by Irrep:
              A 
    DOCC [    41 ]

  Energy converged.

  @DF-RHF Final Energy:  -786.27615733454184

   => Energetics <=

    Nuclear Repulsion Energy =            671.2139172025805465
    One-Electron Energy =               -2429.2961189083334830
    Two-Electron Energy =                 971.8060443712097367
    DFT Exchange-Correlation Energy =       0.0000000000000000
    Empirical Dispersion Energy =           0.0000000000000000
    PCM Polarization Energy =               0.0000000000000000
    EFP Energy =                            0.0000000000000000
    Total Energy =                       -786.2761573345433135

    Alert: EFP and PCM quantities not currently incorporated into SCF psivars.

Properties will be evaluated at   0.000000,   0.000000,   0.000000 Bohr
  ==> Properties <==


Properties computed using the SCF density matrix

  Nuclear Dipole Moment: (a.u.)
     X:    -0.5909      Y:     4.1298      Z:    -1.3527

  Electronic Dipole Moment: (a.u.)
     X:     0.4472      Y:    -3.9284      Z:     1.3630

  Dipole Moment: (a.u.)
     X:    -0.1438      Y:     0.2014      Z:     0.0103     Total:     0.2476

  Dipole Moment: (Debye)
     X:    -0.3654      Y:     0.5119      Z:     0.0262     Total:     0.6294


  Saving occupied orbitals to File 180.

*** tstop() called on cx1-3-4-4.cx1.hpc.ic.ac.uk at Tue Jul  5 17:06:35 2016
Module time:
	user time   =      17.82 seconds =       0.30 minutes
	system time =       0.19 seconds =       0.00 minutes
	total time  =         18 seconds =       0.30 minutes
Total time:
	user time   =      17.82 seconds =       0.30 minutes
	system time =       0.19 seconds =       0.00 minutes
	total time  =         18 seconds =       0.30 minutes


Properties will be evaluated at   0.000000,   0.000000,   0.000000 Bohr

Properties computed using the  density matrix

  Nuclear Dipole Moment: (a.u.)
     X:    -0.5909      Y:     4.1298      Z:    -1.3527

  Electronic Dipole Moment: (a.u.)
     X:     0.4472      Y:    -3.9284      Z:     1.3630

  Dipole Moment: (a.u.)
     X:    -0.1438      Y:     0.2014      Z:     0.0103     Total:     0.2476

  Dipole Moment: (Debye)
     X:    -0.3654      Y:     0.5119      Z:     0.0262     Total:     0.6294

  Quadrupole Moment: (Debye Ang)
    XX:   -56.4038     YY:   -55.1564     ZZ:   -50.0304
    XY:    -0.3085     XZ:     0.6243     YZ:     2.9185

  Traceless Quadrupole Moment: (Debye Ang)
    XX:    -2.5403     YY:    -1.2928     ZZ:     3.8331
    XY:    -0.3085     XZ:     0.6243     YZ:     2.9185

  Mulliken Charges: (a.u.)
   Center  Symbol    Alpha    Beta     Spin     Total
       1     H     0.26684  0.26684  0.00000  0.46632
       2     O     4.36216  4.36216  0.00000 -0.72432
       3     C     3.04374  3.04374  0.00000 -0.08747
       4     C     2.45249  2.45249  0.00000  1.09502
       5     C     2.44197  2.44197  0.00000  1.11607
       6     H     0.37636  0.37636  0.00000  0.24728
       7     F     4.67678  4.67678  0.00000 -0.35356
       8     F     4.67269  4.67269  0.00000 -0.34537
       9     F     4.67770  4.67770  0.00000 -0.35540
      10     F     4.67502  4.67502  0.00000 -0.35004
      11     F     4.67384  4.67384  0.00000 -0.34768
      12     F     4.68042  4.68042  0.00000 -0.36084

   Total alpha = 41.00000, Total beta = 41.00000, Total charge = -0.00000


*** PSI4 exiting successfully. Buy a developer a beer!
