    -----------------------------------------------------------------------
          Psi4: An Open-Source Ab Initio Electronic Structure Package
                              Psi4 (no tag) Driver

                          Git: Rev {detached?}  

    J. M. Turney, A. C. Simmonett, R. M. Parrish, E. G. Hohenstein,
    F. A. Evangelista, J. T. Fermann, B. J. Mintz, L. A. Burns, J. J. Wilke,
    M. L. Abrams, N. J. Russ, M. L. Leininger, C. L. Janssen, E. T. Seidl,
    W. D. Allen, H. F. Schaefer, R. A. King, E. F. Valeev, C. D. Sherrill,
    and T. D. Crawford, WIREs Comput. Mol. Sci. 2, 556-565 (2012)
    (doi: 10.1002/wcms.93)

                         Additional Contributions by
    A. E. DePrince, M. Saitow, U. Bozkaya, A. Yu. Sokolov
    -----------------------------------------------------------------------


    Psi4 started on: Tue Jul  5 16:45:10 2016

    Process ID:  24664
    PSI4DATADIR: /export131/home/mjharvey/miniconda3/share
    Memory level set to 256.000 MB

  ==> Input File <==

--------------------------------------------------------------------------
set {
	reference rhf
	basis 6-31G*
}


set_num_threads( 1 )
memory 2 gb

molecule MOL {
0 1

H	 1.585952	 -4.568302	 3.399427
C	 1.641209	 -3.748105	 2.707115
C	 0.668518	 -3.585831	 1.726420
C	 2.677555	 -2.840066	 2.777133
H	 -0.146648	 -4.284042	 1.656888
C	 0.736054	 -2.535355	 0.836961
H	 3.438900	 -2.949709	 3.529076
C	 2.760232	 -1.774514	 1.887064
H	 -0.008383	 -2.398316	 0.074814
C	 1.785506	 -1.622119	 0.913532
H	 3.578277	 -1.085271	 1.967154
O	 1.765256	 -0.628444	 0.000000
C	 0.569966	 -0.308411	 -0.651101
H	 0.661309	 0.610968	 -1.220074
H	 -0.169332	 -0.172809	 0.124052
H	 0.250561	 -1.108258	 -1.311068

	symmetry c1
}
set optking {
	frozen_dihedral = ("
		10 12 13 14
	")
}

ee = energy('scf')
oeprop('DIPOLE', 'QUADRUPOLE', 'MULLIKEN_CHARGES')
f=open( 'psi4out.xyz', 'w' )
f.write( "16  " )
f.write( str(ee) + "\n" )
f.write( MOL.save_string_xyz() )
f.close()
--------------------------------------------------------------------------

  Memory set to   2.000 GiB by Python script.

*** tstart() called on cx1-3-2-1.cx1.hpc.ic.ac.uk
*** at Tue Jul  5 16:45:10 2016


         ---------------------------------------------------------
                                   SCF
            by Justin Turney, Rob Parrish, and Andy Simmonett
                              RHF Reference
                        1 Threads,   2000 MiB Core
         ---------------------------------------------------------

  ==> Geometry <==

    Molecular point group: c1
    Full point group: C1

    Geometry (in Angstrom), charge = 0, multiplicity = 1:

       Center              X                  Y                   Z               Mass       
    ------------   -----------------  -----------------  -----------------  -----------------
           H          0.035239379825    -2.503611602962     2.190347918195     1.007825032070
           C          0.090496379825    -1.683414602962     1.498035918195    12.000000000000
           C         -0.882194620175    -1.521140602962     0.517340918195    12.000000000000
           C          1.126842379825    -0.775375602962     1.568053918195    12.000000000000
           H         -1.697360620175    -2.219351602962     0.447808918195     1.007825032070
           C         -0.814658620175    -0.470664602962    -0.372118081805    12.000000000000
           H          1.888187379825    -0.885018602962     2.319996918195     1.007825032070
           C          1.209519379825     0.290176397038     0.677984918195    12.000000000000
           H         -1.559095620175    -0.333625602962    -1.134265081805     1.007825032070
           C          0.234793379825     0.442571397038    -0.295547081805    12.000000000000
           H          2.027564379825     0.979419397038     0.758074918195     1.007825032070
           O          0.214543379825     1.436246397038    -1.209079081805    15.994914619560
           C         -0.980746620175     1.756279397038    -1.860180081805    12.000000000000
           H         -0.889403620175     2.675658397038    -2.429153081805     1.007825032070
           H         -1.720044620175     1.891881397038    -1.085027081805     1.007825032070
           H         -1.300151620175     0.956432397038    -2.520147081805     1.007825032070

  Running in c1 symmetry.

  Rotational constants: A =      0.16954  B =      0.05375  C =      0.04137 [cm^-1]
  Rotational constants: A =   5082.74064  B =   1611.27874  C =   1240.33927 [MHz]
  Nuclear repulsion =  349.425362618604368

  Charge       = 0
  Multiplicity = 1
  Electrons    = 58
  Nalpha       = 29
  Nbeta        = 29

  ==> Algorithm <==

  SCF Algorithm Type is DF.
  DIIS enabled.
  MOM disabled.
  Fractional occupation disabled.
  Guess Type is CORE.
  Energy threshold   = 1.00e-06
  Density threshold  = 1.00e-06
  Integral threshold = 0.00e+00

  ==> Primary Basis <==

  Basis Set: 6-31G*
    Number of shells: 64
    Number of basis function: 136
    Number of Cartesian functions: 136
    Spherical Harmonics?: false
    Max angular momentum: 2

  ==> Pre-Iterations <==

   -------------------------------------------------------
    Irrep   Nso     Nmo     Nalpha   Nbeta   Ndocc  Nsocc
   -------------------------------------------------------
     A        136     136       0       0       0       0
   -------------------------------------------------------
    Total     136     136      29      29      29       0
   -------------------------------------------------------

 OEINTS: Overlap, kinetic, potential, dipole, and quadrupole integrals
         stored in file 35.

  ==> Integral Setup <==

  ==> DFJK: Density-Fitted J/K Matrices <==

    J tasked:                  Yes
    K tasked:                  Yes
    wK tasked:                  No
    OpenMP threads:              1
    Integrals threads:           1
    Memory (MB):              1430
    Algorithm:                Core
    Integral Cache:           NONE
    Schwarz Cutoff:          1E-12
    Fitting Condition:       1E-12

   => Auxiliary Basis Set <=

  Basis Set: 
    Number of shells: 264
    Number of basis function: 848
    Number of Cartesian functions: 848
    Spherical Harmonics?: false
    Max angular momentum: 3

  Minimum eigenvalue in the overlap matrix is 4.4383863311E-04.
  Using Symmetric Orthogonalization.
  SCF Guess: Core (One-Electron) Hamiltonian.

  ==> Iterations <==

                           Total Energy        Delta E     RMS |[F,P]|

   @DF-RHF iter   1:  -270.52971583900671   -2.70530e+02   6.88776e-02 
   @DF-RHF iter   2:  -264.28098781960011    6.24873e+00   5.20716e-02 DIIS
   @DF-RHF iter   3:  -308.28831760365756   -4.40073e+01   4.99343e-02 DIIS
   @DF-RHF iter   4:  -342.77251021885365   -3.44842e+01   1.35871e-02 DIIS
   @DF-RHF iter   5:  -343.87924500337704   -1.10673e+00   8.26116e-03 DIIS
   @DF-RHF iter   6:  -344.50466798045522   -6.25423e-01   2.26521e-03 DIIS
   @DF-RHF iter   7:  -344.56721769562387   -6.25497e-02   6.15138e-04 DIIS
   @DF-RHF iter   8:  -344.57137243105512   -4.15474e-03   1.64423e-04 DIIS
   @DF-RHF iter   9:  -344.57179408089780   -4.21650e-04   7.02898e-05 DIIS
   @DF-RHF iter  10:  -344.57188448611157   -9.04052e-05   3.01145e-05 DIIS
   @DF-RHF iter  11:  -344.57191145686375   -2.69708e-05   1.06735e-05 DIIS
   @DF-RHF iter  12:  -344.57191535503171   -3.89817e-06   4.41455e-06 DIIS
   @DF-RHF iter  13:  -344.57191632100944   -9.65978e-07   1.97755e-06 DIIS
   @DF-RHF iter  14:  -344.57191652483607   -2.03827e-07   7.11388e-07 DIIS

  ==> Post-Iterations <==

    Orbital Energies (a.u.)
    -----------------------

    Doubly Occupied:                                                      

       1A    -20.580536     2A    -11.294871     3A    -11.281206  
       4A    -11.233146     5A    -11.232483     6A    -11.224065  
       7A    -11.220205     8A    -11.219648     9A     -1.413033  
      10A     -1.145887    11A     -1.020469    12A     -1.012677  
      13A     -0.944667    14A     -0.833974    15A     -0.803742  
      16A     -0.722961    17A     -0.666977    18A     -0.660003  
      19A     -0.656318    20A     -0.617763    21A     -0.594144  
      22A     -0.574806    23A     -0.523294    24A     -0.521157  
      25A     -0.510149    26A     -0.470723    27A     -0.455649  
      28A     -0.334934    29A     -0.306749  

    Virtual:                                                              

      30A      0.145735    31A      0.164130    32A      0.236686  
      33A      0.259640    34A      0.297165    35A      0.297626  
      36A      0.309206    37A      0.327850    38A      0.328975  
      39A      0.343416    40A      0.377197    41A      0.385086  
      42A      0.454989    43A      0.479030    44A      0.497433  
      45A      0.535309    46A      0.557168    47A      0.677332  
      48A      0.718014    49A      0.738994    50A      0.750636  
      51A      0.760759    52A      0.766776    53A      0.819504  
      54A      0.829599    55A      0.836977    56A      0.845593  
      57A      0.848419    58A      0.850461    59A      0.867575  
      60A      0.900437    61A      0.922554    62A      0.929190  
      63A      0.999295    64A      1.009427    65A      1.107558  
      66A      1.113971    67A      1.119574    68A      1.127052  
      69A      1.134568    70A      1.146169    71A      1.178929  
      72A      1.192631    73A      1.206936    74A      1.220704  
      75A      1.247202    76A      1.270077    77A      1.307355  
      78A      1.334289    79A      1.347516    80A      1.385718  
      81A      1.449500    82A      1.468606    83A      1.495037  
      84A      1.539142    85A      1.610875    86A      1.662140  
      87A      1.700356    88A      1.723875    89A      1.728186  
      90A      1.749375    91A      1.779925    92A      1.801571  
      93A      1.830000    94A      1.995353    95A      2.064981  
      96A      2.097888    97A      2.119817    98A      2.183839  
      99A      2.205006   100A      2.272350   101A      2.314081  
     102A      2.332013   103A      2.346602   104A      2.418450  
     105A      2.432713   106A      2.464692   107A      2.474659  
     108A      2.499865   109A      2.513599   110A      2.559826  
     111A      2.566991   112A      2.626777   113A      2.654489  
     114A      2.711116   115A      2.728528   116A      2.861479  
     117A      2.914589   118A      2.941815   119A      3.015744  
     120A      3.035258   121A      3.060570   122A      3.105598  
     123A      3.116222   124A      3.149248   125A      3.284618  
     126A      3.364485   127A      3.581957   128A      3.845115  
     129A      4.473774   130A      4.533752   131A      4.550363  
     132A      4.651944   133A      4.760734   134A      4.768118  
     135A      4.893079   136A      5.190353  

    Final Occupation by Irrep:
              A 
    DOCC [    29 ]

  Energy converged.

  @DF-RHF Final Energy:  -344.57191652483607

   => Energetics <=

    Nuclear Repulsion Energy =            349.4253626186043675
    One-Electron Energy =               -1159.8419699530968501
    Two-Electron Energy =                 465.8446908096564130
    DFT Exchange-Correlation Energy =       0.0000000000000000
    Empirical Dispersion Energy =           0.0000000000000000
    PCM Polarization Energy =               0.0000000000000000
    EFP Energy =                            0.0000000000000000
    Total Energy =                       -344.5719165248360696

    Alert: EFP and PCM quantities not currently incorporated into SCF psivars.

Properties will be evaluated at   0.000000,   0.000000,   0.000000 Bohr
  ==> Properties <==


Properties computed using the SCF density matrix

  Nuclear Dipole Moment: (a.u.)
     X:    -3.0130      Y:     0.5336      Z:    -1.3674

  Electronic Dipole Moment: (a.u.)
     X:     2.4743      Y:    -0.5642      Z:     1.2695

  Dipole Moment: (a.u.)
     X:    -0.5387      Y:    -0.0307      Z:    -0.0978     Total:     0.5484

  Dipole Moment: (Debye)
     X:    -1.3693      Y:    -0.0780      Z:    -0.2486     Total:     1.3938


  Saving occupied orbitals to File 180.

*** tstop() called on cx1-3-2-1.cx1.hpc.ic.ac.uk at Tue Jul  5 16:45:24 2016
Module time:
	user time   =      13.32 seconds =       0.22 minutes
	system time =       0.08 seconds =       0.00 minutes
	total time  =         14 seconds =       0.23 minutes
Total time:
	user time   =      13.32 seconds =       0.22 minutes
	system time =       0.08 seconds =       0.00 minutes
	total time  =         14 seconds =       0.23 minutes


Properties will be evaluated at   0.000000,   0.000000,   0.000000 Bohr

Properties computed using the  density matrix

  Nuclear Dipole Moment: (a.u.)
     X:    -3.0130      Y:     0.5336      Z:    -1.3674

  Electronic Dipole Moment: (a.u.)
     X:     2.4743      Y:    -0.5642      Z:     1.2695

  Dipole Moment: (a.u.)
     X:    -0.5387      Y:    -0.0307      Z:    -0.0978     Total:     0.5484

  Dipole Moment: (Debye)
     X:    -1.3693      Y:    -0.0780      Z:    -0.2486     Total:     1.3938

  Quadrupole Moment: (Debye Ang)
    XX:   -44.5382     YY:   -46.0258     ZZ:   -44.8867
    XY:    -0.5362     XZ:     5.7189     YZ:    -3.3451

  Traceless Quadrupole Moment: (Debye Ang)
    XX:     0.6120     YY:    -0.8756     ZZ:     0.2635
    XY:    -0.5362     XZ:     5.7189     YZ:    -3.3451

  Mulliken Charges: (a.u.)
   Center  Symbol    Alpha    Beta     Spin     Total
       1     H     0.40106  0.40106  0.00000  0.19787
       2     C     3.11158  3.11158  0.00000 -0.22315
       3     C     3.09156  3.09156  0.00000 -0.18312
       4     C     3.09209  3.09209  0.00000 -0.18419
       5     H     0.39996  0.39996  0.00000  0.20008
       6     C     3.14833  3.14833  0.00000 -0.29666
       7     H     0.39827  0.39827  0.00000  0.20347
       8     C     3.12789  3.12789  0.00000 -0.25579
       9     H     0.39580  0.39580  0.00000  0.20840
      10     C     2.77399  2.77399  0.00000  0.45202
      11     H     0.39378  0.39378  0.00000  0.21244
      12     O     4.33145  4.33145  0.00000 -0.66290
      13     C     3.09497  3.09497  0.00000 -0.18994
      14     H     0.40262  0.40262  0.00000  0.19475
      15     H     0.41697  0.41697  0.00000  0.16607
      16     H     0.41967  0.41967  0.00000  0.16066

   Total alpha = 29.00000, Total beta = 29.00000, Total charge =  0.00000


*** PSI4 exiting successfully. Buy a developer a beer!
