
    -----------------------------------------------------------------------
          Psi4: An Open-Source Ab Initio Electronic Structure Package
                               Psi4 1.1 release

                         Git: Rev {HEAD} add49b9 


    R. M. Parrish, L. A. Burns, D. G. A. Smith, A. C. Simmonett,
    A. E. DePrince III, E. G. Hohenstein, U. Bozkaya, A. Yu. Sokolov,
    R. Di Remigio, R. M. Richard, J. F. Gonthier, A. M. James,
    H. R. McAlexander, A. Kumar, M. Saitow, X. Wang, B. P. Pritchard,
    P. Verma, H. F. Schaefer III, K. Patkowski, R. A. King, E. F. Valeev,
    F. A. Evangelista, J. M. Turney, T. D. Crawford, and C. D. Sherrill,
    J. Chem. Theory Comput. in press (2017).
    (doi: 10.1021/acs.jctc.7b00174)

    -----------------------------------------------------------------------


    Psi4 started on: Tuesday, 12 December 2017 11:19AM

    Process ID:  27679
    PSIDATADIR: /shared/raimis/opt/miniconda/envs/htmd/share/psi4
    Memory:     500.0 MiB
    Threads:    1
    
  ==> Input File <==

--------------------------------------------------------------------------
set_num_threads(1)
set_memory(4203741184)

set { reference rks }
set { basis cc-pVDZ }

molecule MOL {
    0 1
    noreorient
    nocom
    symmetry c1
    O    1.050400   0.042900  -0.048100
    C    2.474100   0.047400  -0.029000
    C    3.002600  -1.068900  -0.932000
    N    4.462700  -1.072400  -1.006800
    H    0.779677  -0.771650  -0.505516
    H    2.809900  -0.097900   1.003200
    H    2.817400   1.026800  -0.378600
    H    2.581000  -0.963300  -1.938400
    H    2.653800  -2.036400  -0.553400
    H    4.779000  -0.221000  -1.470000
    H    4.758600  -1.842500  -1.606500
}

set optking { frozen_dihedral = (" 3 2 1 5 ") }

energy, wfn = energy('B3LYP-D3', return_wfn=True)

import os
os.chdir(os.environ['HTMD_PSI4_WORKDIR'])

oeprop(wfn, 'DIPOLE', 'QUADRUPOLE', 'MULLIKEN_CHARGES')

with open('psi4out.xyz', 'w') as f:
    f.write('11 ' )
    f.write('%.12f\n' % energy)
    f.write(MOL.save_string_xyz())
--------------------------------------------------------------------------
  Threads set to 1 by Python driver.

  Memory set to   3.915 GiB by Python driver.

*** tstart() called on computer06
*** at Tue Dec 12 11:19:09 2017

   => Loading Basis Set <=

    Name: CC-PVDZ
    Role: ORBITAL
    Keyword: BASIS
    atoms 1    entry O          line   190 file /shared/raimis/opt/miniconda/envs/htmd/share/psi4/basis/cc-pvdz.gbs 
    atoms 2-3  entry C          line   130 file /shared/raimis/opt/miniconda/envs/htmd/share/psi4/basis/cc-pvdz.gbs 
    atoms 4    entry N          line   160 file /shared/raimis/opt/miniconda/envs/htmd/share/psi4/basis/cc-pvdz.gbs 
    atoms 5-11 entry H          line    20 file /shared/raimis/opt/miniconda/envs/htmd/share/psi4/basis/cc-pvdz.gbs 


         ---------------------------------------------------------
                                   SCF
            by Justin Turney, Rob Parrish, and Andy Simmonett
                              RKS Reference
                        1 Threads,   4009 MiB Core
         ---------------------------------------------------------

  ==> Geometry <==

    Molecular point group: c1
    Full point group: C1

    Geometry (in Angstrom), charge = 0, multiplicity = 1:

       Center              X                  Y                   Z               Mass       
    ------------   -----------------  -----------------  -----------------  -----------------
           O          1.050400000000     0.042900000000    -0.048100000000    15.994914619560
           C          2.474100000000     0.047400000000    -0.029000000000    12.000000000000
           C          3.002600000000    -1.068900000000    -0.932000000000    12.000000000000
           N          4.462700000000    -1.072400000000    -1.006800000000    14.003074004780
           H          0.779677000000    -0.771650000000    -0.505516000000     1.007825032070
           H          2.809900000000    -0.097900000000     1.003200000000     1.007825032070
           H          2.817400000000     1.026800000000    -0.378600000000     1.007825032070
           H          2.581000000000    -0.963300000000    -1.938400000000     1.007825032070
           H          2.653800000000    -2.036400000000    -0.553400000000     1.007825032070
           H          4.779000000000    -0.221000000000    -1.470000000000     1.007825032070
           H          4.758600000000    -1.842500000000    -1.606500000000     1.007825032070

  Running in c1 symmetry.

  Rotational constants: A =      0.74754  B =      0.02760  C =      0.02695 [cm^-1]
  Rotational constants: A =  22410.72183  B =    827.32481  C =    807.91022 [MHz]
  Nuclear repulsion =  131.107592871124183

  Charge       = 0
  Multiplicity = 1
  Electrons    = 34
  Nalpha       = 17
  Nbeta        = 17

  ==> Algorithm <==

  SCF Algorithm Type is DF.
  DIIS enabled.
  MOM disabled.
  Fractional occupation disabled.
  Guess Type is SAD.
  Energy threshold   = 1.00e-06
  Density threshold  = 1.00e-06
  Integral threshold = 0.00e+00

  ==> Primary Basis <==

  Basis Set: CC-PVDZ
    Blend: CC-PVDZ
    Number of shells: 45
    Number of basis function: 91
    Number of Cartesian functions: 95
    Spherical Harmonics?: true
    Max angular momentum: 2

  ==> DFT Potential <==

   => B3LYP Composite Functional <= 

    B3LYP Hybrid-GGA Exchange-Correlation Functional (VWN1-RPA)

    P.J. Stephens et. al., J. Phys. Chem., 98, 11623-11627, 1994

    Points   =           5000
    Deriv    =              1
    GGA      =           TRUE
    Meta     =          FALSE

    X_LRC        =          FALSE
    X_Hybrid     =           TRUE
    X_Alpha      =   2.000000E-01
    X_Omega      =   0.000000E+00
    C_LRC        =          FALSE
    C_Hybrid     =          FALSE
    C_Alpha      =   0.000000E+00
    C_Omega      =   0.000000E+00

   => Exchange Functionals <=

    0.8000    B3_X
    0.2000      HF 

   => Correlation Functionals <=

    0.1900 VWN3RPA_C
    0.8100   LYP_C

   => Molecular Quadrature <=

    Radial Scheme    =       TREUTLER
    Pruning Scheme   =           FLAT
    Nuclear Scheme   =       TREUTLER

    BS radius alpha  =              1
    Pruning alpha    =              1
    Radial Points    =             75
    Spherical Points =            302
    Total Points     =         245052
    Total Blocks     =            215
    Max Points       =           4931
    Max Functions    =             91

   => -D3ZERO: Empirical Dispersion <=

    Grimme's -D3 (zero-damping) Dispersion Correction
    Grimme S.; Antony J.; Ehrlich S.; Krieg H. (2010), J. Chem. Phys., 132: 154104

        S6 =   1.000000E+00
        S8 =   1.703000E+00
       SR6 =   1.261000E+00
    ALPHA6 =   1.400000E+01

   => Loading Basis Set <=

    Name: (CC-PVDZ AUX)
    Role: JKFIT
    Keyword: DF_BASIS_SCF
    atoms 1    entry O          line   220 file /shared/raimis/opt/miniconda/envs/htmd/share/psi4/basis/cc-pvdz-jkfit.gbs 
    atoms 2-3  entry C          line   120 file /shared/raimis/opt/miniconda/envs/htmd/share/psi4/basis/cc-pvdz-jkfit.gbs 
    atoms 4    entry N          line   170 file /shared/raimis/opt/miniconda/envs/htmd/share/psi4/basis/cc-pvdz-jkfit.gbs 
    atoms 5-11 entry H          line    50 file /shared/raimis/opt/miniconda/envs/htmd/share/psi4/basis/cc-pvdz-jkfit.gbs 

  ==> Pre-Iterations <==

   -------------------------------------------------------
    Irrep   Nso     Nmo     Nalpha   Nbeta   Ndocc  Nsocc
   -------------------------------------------------------
     A         91      91       0       0       0       0
   -------------------------------------------------------
    Total      91      91      17      17      17       0
   -------------------------------------------------------

  ==> Integral Setup <==

  ==> DFJK: Density-Fitted J/K Matrices <==

    J tasked:                  Yes
    K tasked:                  Yes
    wK tasked:                  No
    OpenMP threads:              1
    Integrals threads:           1
    Memory (MB):              3006
    Algorithm:                Core
    Integral Cache:           NONE
    Schwarz Cutoff:          1E-12
    Fitting Condition:       1E-12

   => Auxiliary Basis Set <=

  Basis Set: (CC-PVDZ AUX)
    Blend: CC-PVDZ-JKFIT
    Number of shells: 159
    Number of basis function: 441
    Number of Cartesian functions: 499
    Spherical Harmonics?: true
    Max angular momentum: 3

  Minimum eigenvalue in the overlap matrix is 4.3542675778E-03.
  Using Symmetric Orthogonalization.

  SCF Guess: Superposition of Atomic Densities via on-the-fly atomic UHF.

  ==> Iterations <==

                           Total Energy        Delta E     RMS |[F,P]|

   @DF-RKS iter   0:  -210.84507949678979   -2.10845e+02   3.63272e-02 
   @DF-RKS iter   1:  -210.19562417437348    6.49455e-01   7.39256e-03 
   @DF-RKS iter   2:  -210.03723606836388    1.58388e-01   1.01064e-02 DIIS
   @DF-RKS iter   3:  -210.38872446405662   -3.51488e-01   6.13479e-04 DIIS
   @DF-RKS iter   4:  -210.38951969419367   -7.95230e-04   3.90242e-04 DIIS
   @DF-RKS iter   5:  -210.39007673791374   -5.57044e-04   5.53338e-05 DIIS
   @DF-RKS iter   6:  -210.39008528805564   -8.55014e-06   2.52803e-05 DIIS
   @DF-RKS iter   7:  -210.39008754245194   -2.25440e-06   1.97641e-06 DIIS
   @DF-RKS iter   8:  -210.39008755762592   -1.51740e-08   5.11408e-07 DIIS

  ==> Post-Iterations <==

    Orbital Energies (a.u.)
    -----------------------

    Doubly Occupied:                                                      

       1A    -19.126736     2A    -14.311961     3A    -10.224026  
       4A    -10.213075     5A     -1.010691     6A     -0.884168  
       7A     -0.712437     8A     -0.619700     9A     -0.501378  
      10A     -0.479568    11A     -0.451754    12A     -0.438085  
      13A     -0.397552    14A     -0.372785    15A     -0.320751  
      16A     -0.261599    17A     -0.239259  

    Virtual:                                                              

      18A      0.047359    19A      0.059686    20A      0.091603  
      21A      0.107011    22A      0.129979    23A      0.147408  
      24A      0.163883    25A      0.206551    26A      0.242146  
      27A      0.256959    28A      0.431515    29A      0.442557  
      30A      0.484457    31A      0.501462    32A      0.568116  
      33A      0.575138    34A      0.593288    35A      0.609093  
      36A      0.633928    37A      0.645662    38A      0.652099  
      39A      0.670716    40A      0.694403    41A      0.812735  
      42A      0.825237    43A      0.845035    44A      0.904889  
      45A      0.957496    46A      1.005882    47A      1.031158  
      48A      1.059878    49A      1.136757    50A      1.208635  
      51A      1.227622    52A      1.237039    53A      1.317802  
      54A      1.372108    55A      1.422278    56A      1.487441  
      57A      1.549930    58A      1.589287    59A      1.615474  
      60A      1.628109    61A      1.645112    62A      1.663260  
      63A      1.705061    64A      1.734349    65A      1.738987  
      66A      1.767838    67A      1.815266    68A      1.839924  
      69A      1.890009    70A      1.939818    71A      1.995782  
      72A      2.014710    73A      2.073614    74A      2.148079  
      75A      2.157512    76A      2.235270    77A      2.277805  
      78A      2.364978    79A      2.388058    80A      2.438156  
      81A      2.493831    82A      2.539472    83A      2.604625  
      84A      2.665855    85A      2.820894    86A      2.955142  
      87A      3.028672    88A      3.043656    89A      3.072215  
      90A      3.262069    91A      3.685598  

    Final Occupation by Irrep:
              A 
    DOCC [    17 ]

  Energy converged.

  @DF-RKS Final Energy:  -210.39008755762592

   => Energetics <=

    Nuclear Repulsion Energy =            131.1075928711241829
    One-Electron Energy =                -544.9814327257773812
    Two-Electron Energy =                 226.9763064815585665
    DFT Exchange-Correlation Energy =     -23.4874149545313280
    Empirical Dispersion Energy =          -0.0051392300000000
    PCM Polarization Energy =               0.0000000000000000
    EFP Energy =                            0.0000000000000000
    Total Energy =                       -210.3900875576259182



Properties will be evaluated at   0.000000,   0.000000,   0.000000 Bohr

Properties computed using the SCF density matrix

  Nuclear Dipole Moment: (a.u.)
     X:   177.0327      Y:   -34.3903      Z:   -35.2389

  Electronic Dipole Moment: (a.u.)
     X:  -176.7523      Y:    33.9307      Z:    34.4692

  Dipole Moment: (a.u.)
     X:     0.2804      Y:    -0.4596      Z:    -0.7697     Total:     0.9393

  Dipole Moment: (Debye)
     X:     0.7127      Y:    -1.1681      Z:    -1.9563     Total:     2.3874


*** tstop() called on computer06 at Tue Dec 12 11:19:33 2017
Module time:
	user time   =      23.47 seconds =       0.39 minutes
	system time =       0.19 seconds =       0.00 minutes
	total time  =         24 seconds =       0.40 minutes
Total time:
	user time   =      23.47 seconds =       0.39 minutes
	system time =       0.19 seconds =       0.00 minutes
	total time  =         24 seconds =       0.40 minutes


Properties will be evaluated at   0.000000,   0.000000,   0.000000 Bohr

Properties computed using the  density matrix

  Nuclear Dipole Moment: (a.u.)
     X:   177.0327      Y:   -34.3903      Z:   -35.2389

  Electronic Dipole Moment: (a.u.)
     X:  -176.7523      Y:    33.9307      Z:    34.4692

  Dipole Moment: (a.u.)
     X:     0.2804      Y:    -0.4596      Z:    -0.7697     Total:     0.9393

  Dipole Moment: (Debye)
     X:     0.7127      Y:    -1.1681      Z:    -1.9563     Total:     2.3874

  Quadrupole Moment: (Debye Ang)
    XX:   -23.9787     YY:   -23.2880     ZZ:   -22.8722
    XY:     0.0237     XZ:    -7.0063     YZ:     2.0788

  Traceless Quadrupole Moment: (Debye Ang)
    XX:    -0.5991     YY:     0.0917     ZZ:     0.5075
    XY:     0.0237     XZ:    -7.0063     YZ:     2.0788

  Mulliken Charges: (a.u.)
   Center  Symbol    Alpha    Beta     Spin     Total
       1     O     4.13797  4.13797  0.00000 -0.27594
       2     C     2.91324  2.91324  0.00000  0.17351
       3     C     3.01249  3.01249  0.00000 -0.02498
       4     N     3.58899  3.58899  0.00000 -0.17799
       5     H     0.43266  0.43266  0.00000  0.13468
       6     H     0.49390  0.49390  0.00000  0.01220
       7     H     0.49792  0.49792  0.00000  0.00416
       8     H     0.50290  0.50290  0.00000 -0.00581
       9     H     0.49273  0.49273  0.00000  0.01454
      10     H     0.46343  0.46343  0.00000  0.07314
      11     H     0.46376  0.46376  0.00000  0.07248

   Total alpha = 17.00000, Total beta = 17.00000, Total charge = -0.00000


*** Psi4 exiting successfully. Buy a developer a beer!
