    -----------------------------------------------------------------------
          Psi4: An Open-Source Ab Initio Electronic Structure Package
                              Psi4 (no tag) Driver

                          Git: Rev {detached?}  

    J. M. Turney, A. C. Simmonett, R. M. Parrish, E. G. Hohenstein,
    F. A. Evangelista, J. T. Fermann, B. J. Mintz, L. A. Burns, J. J. Wilke,
    M. L. Abrams, N. J. Russ, M. L. Leininger, C. L. Janssen, E. T. Seidl,
    W. D. Allen, H. F. Schaefer, R. A. King, E. F. Valeev, C. D. Sherrill,
    and T. D. Crawford, WIREs Comput. Mol. Sci. 2, 556-565 (2012)
    (doi: 10.1002/wcms.93)

                         Additional Contributions by
    A. E. DePrince, M. Saitow, U. Bozkaya, A. Yu. Sokolov
    -----------------------------------------------------------------------


    Psi4 started on: Tue Jul  5 16:25:58 2016

    Process ID:  31099
    PSI4DATADIR: /export131/home/mjharvey/miniconda3/share
    Memory level set to 256.000 MB

  ==> Input File <==

--------------------------------------------------------------------------
set {
	reference rhf
	basis 6-31G*
}


set_num_threads( 1 )
memory 2 gb

molecule MOL {
0 1

H	 1.459103	 0.593459	 -2.060296
O	 0.618456	 0.433426	 -1.656290
C	 0.702312	 0.627605	 -0.264544
C	 -0.714990	 0.596302	 0.266387
H	 1.153583	 1.589617	 -0.037075
H	 1.296925	 -0.154212	 0.203133
O	 -1.405996	 -0.526611	 -0.195820
H	 -1.257453	 1.468809	 -0.075599
H	 -0.688972	 0.618407	 1.353696
H	 -1.673127	 -1.032884	 0.560714

	symmetry c1
}
set optking {
	frozen_dihedral = ("
		5 3 4 7
	")
}

ee = energy('scf')
oeprop('DIPOLE', 'QUADRUPOLE', 'MULLIKEN_CHARGES')
f=open( 'psi4out.xyz', 'w' )
f.write( "10  " )
f.write( str(ee) + "\n" )
f.write( MOL.save_string_xyz() )
f.close()
--------------------------------------------------------------------------

  Memory set to   2.000 GiB by Python script.

*** tstart() called on cx1-49-4-2.cx1.hpc.ic.ac.uk
*** at Tue Jul  5 16:25:58 2016


         ---------------------------------------------------------
                                   SCF
            by Justin Turney, Rob Parrish, and Andy Simmonett
                              RHF Reference
                        1 Threads,   2000 MiB Core
         ---------------------------------------------------------

  ==> Geometry <==

    Molecular point group: c1
    Full point group: C1

    Geometry (in Angstrom), charge = 0, multiplicity = 1:

       Center              X                  Y                   Z               Mass       
    ------------   -----------------  -----------------  -----------------  -----------------
           H          1.659894247590     0.330651676052    -1.582223374279     1.007825032070
           O          0.819247247590     0.170618676052    -1.178217374279    15.994914619560
           C          0.903103247590     0.364797676052     0.213528625721    12.000000000000
           C         -0.514198752410     0.333494676052     0.744459625721    12.000000000000
           H          1.354374247590     1.326809676052     0.440997625721     1.007825032070
           H          1.497716247590    -0.417019323948     0.681205625721     1.007825032070
           O         -1.205204752410    -0.789418323948     0.282252625721    15.994914619560
           H         -1.056661752410     1.206001676052     0.402473625721     1.007825032070
           H         -0.488180752410     0.355599676052     1.831768625721     1.007825032070
           H         -1.472335752410    -1.295691323948     1.038786625721     1.007825032070

  Running in c1 symmetry.

  Rotational constants: A =      0.52817  B =      0.18999  C =      0.15538 [cm^-1]
  Rotational constants: A =  15834.22011  B =   5695.77054  C =   4658.16063 [MHz]
  Nuclear repulsion =  134.154481918068484

  Charge       = 0
  Multiplicity = 1
  Electrons    = 34
  Nalpha       = 17
  Nbeta        = 17

  ==> Algorithm <==

  SCF Algorithm Type is DF.
  DIIS enabled.
  MOM disabled.
  Fractional occupation disabled.
  Guess Type is CORE.
  Energy threshold   = 1.00e-06
  Density threshold  = 1.00e-06
  Integral threshold = 0.00e+00

  ==> Primary Basis <==

  Basis Set: 6-31G*
    Number of shells: 36
    Number of basis function: 72
    Number of Cartesian functions: 72
    Spherical Harmonics?: false
    Max angular momentum: 2

  ==> Pre-Iterations <==

   -------------------------------------------------------
    Irrep   Nso     Nmo     Nalpha   Nbeta   Ndocc  Nsocc
   -------------------------------------------------------
     A         72      72       0       0       0       0
   -------------------------------------------------------
    Total      72      72      17      17      17       0
   -------------------------------------------------------

 OEINTS: Overlap, kinetic, potential, dipole, and quadrupole integrals
         stored in file 35.

  ==> Integral Setup <==

  ==> DFJK: Density-Fitted J/K Matrices <==

    J tasked:                  Yes
    K tasked:                  Yes
    wK tasked:                  No
    OpenMP threads:              1
    Integrals threads:           1
    Memory (MB):              1430
    Algorithm:                Core
    Integral Cache:           NONE
    Schwarz Cutoff:          1E-12
    Fitting Condition:       1E-12

   => Auxiliary Basis Set <=

  Basis Set: 
    Number of shells: 150
    Number of basis function: 474
    Number of Cartesian functions: 474
    Spherical Harmonics?: false
    Max angular momentum: 3

  Minimum eigenvalue in the overlap matrix is 4.8130952721E-03.
  Using Symmetric Orthogonalization.
  SCF Guess: Core (One-Electron) Hamiltonian.

  ==> Iterations <==

                           Total Energy        Delta E     RMS |[F,P]|

   @DF-RHF iter   1:  -200.28999407897481   -2.00290e+02   8.44875e-02 
   @DF-RHF iter   2:  -190.42711658337691    9.86288e+00   7.69227e-02 DIIS
   @DF-RHF iter   3:  -223.32840457210494   -3.29013e+01   4.09450e-02 DIIS
   @DF-RHF iter   4:  -228.25460158703646   -4.92620e+00   1.56587e-02 DIIS
   @DF-RHF iter   5:  -228.83782048243557   -5.83219e-01   5.70949e-03 DIIS
   @DF-RHF iter   6:  -228.90688016536313   -6.90597e-02   1.49932e-03 DIIS
   @DF-RHF iter   7:  -228.91300824553076   -6.12808e-03   5.74356e-04 DIIS
   @DF-RHF iter   8:  -228.91394751927038   -9.39274e-04   1.35899e-04 DIIS
   @DF-RHF iter   9:  -228.91401462015443   -6.71009e-05   4.10418e-05 DIIS
   @DF-RHF iter  10:  -228.91402128540648   -6.66525e-06   1.16342e-05 DIIS
   @DF-RHF iter  11:  -228.91402183155543   -5.46149e-07   2.09308e-06 DIIS
   @DF-RHF iter  12:  -228.91402185597809   -2.44227e-08   6.35886e-07 DIIS

  ==> Post-Iterations <==

    Orbital Energies (a.u.)
    -----------------------

    Doubly Occupied:                                                      

       1A    -20.550420     2A    -20.549852     3A    -11.270341  
       4A    -11.269111     5A     -1.370386     6A     -1.345822  
       7A     -0.999577     8A     -0.833766     9A     -0.725262  
      10A     -0.663850    11A     -0.657421    12A     -0.595071  
      13A     -0.568306    14A     -0.511060    15A     -0.491205  
      16A     -0.445547    17A     -0.425523  

    Virtual:                                                              

      18A      0.211050    19A      0.250408    20A      0.276556  
      21A      0.302814    22A      0.323053    23A      0.348548  
      24A      0.394938    25A      0.420254    26A      0.440606  
      27A      0.752900    28A      0.810836    29A      0.820810  
      30A      0.824448    31A      0.907819    32A      0.916885  
      33A      1.060653    34A      1.103468    35A      1.118751  
      36A      1.136026    37A      1.162853    38A      1.193649  
      39A      1.210761    40A      1.255182    41A      1.292001  
      42A      1.299309    43A      1.310464    44A      1.416737  
      45A      1.471749    46A      1.599322    47A      1.699990  
      48A      1.728488    49A      1.823363    50A      1.875812  
      51A      1.997928    52A      2.037885    53A      2.094595  
      54A      2.135184    55A      2.242561    56A      2.384676  
      57A      2.433810    58A      2.467973    59A      2.510173  
      60A      2.665668    61A      2.710837    62A      2.746292  
      63A      2.787926    64A      2.866045    65A      2.923927  
      66A      3.050519    67A      3.177341    68A      3.257586  
      69A      4.135800    70A      4.214364    71A      4.634878  
      72A      4.858578  

    Final Occupation by Irrep:
              A 
    DOCC [    17 ]

  Energy converged.

  @DF-RHF Final Energy:  -228.91402185597809

   => Energetics <=

    Nuclear Repulsion Energy =            134.1544819180684840
    One-Electron Energy =                -579.5919947108429824
    Two-Electron Energy =                 216.5234909367961791
    DFT Exchange-Correlation Energy =       0.0000000000000000
    Empirical Dispersion Energy =           0.0000000000000000
    PCM Polarization Energy =               0.0000000000000000
    EFP Energy =                            0.0000000000000000
    Total Energy =                       -228.9140218559783193

    Alert: EFP and PCM quantities not currently incorporated into SCF psivars.

Properties will be evaluated at   0.000000,   0.000000,   0.000000 Bohr
  ==> Properties <==


Properties computed using the SCF density matrix

  Nuclear Dipole Moment: (a.u.)
     X:     1.3995      Y:     1.4092      Z:     2.6328

  Electronic Dipole Moment: (a.u.)
     X:    -0.7082      Y:    -1.1037      Z:    -1.6169

  Dipole Moment: (a.u.)
     X:     0.6912      Y:     0.3055      Z:     1.0159     Total:     1.2662

  Dipole Moment: (Debye)
     X:     1.7569      Y:     0.7765      Z:     2.5822     Total:     3.2183


  Saving occupied orbitals to File 180.

*** tstop() called on cx1-49-4-2.cx1.hpc.ic.ac.uk at Tue Jul  5 16:26:01 2016
Module time:
	user time   =       2.24 seconds =       0.04 minutes
	system time =       0.02 seconds =       0.00 minutes
	total time  =          3 seconds =       0.05 minutes
Total time:
	user time   =       2.24 seconds =       0.04 minutes
	system time =       0.02 seconds =       0.00 minutes
	total time  =          3 seconds =       0.05 minutes


Properties will be evaluated at   0.000000,   0.000000,   0.000000 Bohr

Properties computed using the  density matrix

  Nuclear Dipole Moment: (a.u.)
     X:     1.3995      Y:     1.4092      Z:     2.6328

  Electronic Dipole Moment: (a.u.)
     X:    -0.7082      Y:    -1.1037      Z:    -1.6169

  Dipole Moment: (a.u.)
     X:     0.6912      Y:     0.3055      Z:     1.0159     Total:     1.2662

  Dipole Moment: (Debye)
     X:     1.7569      Y:     0.7765      Z:     2.5822     Total:     3.2183

  Quadrupole Moment: (Debye Ang)
    XX:   -21.2807     YY:   -23.7798     ZZ:   -22.5980
    XY:     1.3849     XZ:    -4.5491     YZ:    -2.4811

  Traceless Quadrupole Moment: (Debye Ang)
    XX:     1.2722     YY:    -1.2270     ZZ:    -0.0452
    XY:     1.3849     XZ:    -4.5491     YZ:    -2.4811

  Mulliken Charges: (a.u.)
   Center  Symbol    Alpha    Beta     Spin     Total
       1     H     0.28126  0.28126  0.00000  0.43748
       2     O     4.36280  4.36280  0.00000 -0.72560
       3     C     2.99883  2.99883  0.00000  0.00233
       4     C     3.00382  3.00382  0.00000 -0.00764
       5     H     0.43235  0.43235  0.00000  0.13529
       6     H     0.43072  0.43072  0.00000  0.13855
       7     O     4.35908  4.35908  0.00000 -0.71816
       8     H     0.41697  0.41697  0.00000  0.16606
       9     H     0.43297  0.43297  0.00000  0.13407
      10     H     0.28119  0.28119  0.00000  0.43762

   Total alpha = 17.00000, Total beta = 17.00000, Total charge = -0.00000


*** PSI4 exiting successfully. Buy a developer a beer!
