    -----------------------------------------------------------------------
          Psi4: An Open-Source Ab Initio Electronic Structure Package
                              Psi4 (no tag) Driver

                          Git: Rev {detached?}  

    J. M. Turney, A. C. Simmonett, R. M. Parrish, E. G. Hohenstein,
    F. A. Evangelista, J. T. Fermann, B. J. Mintz, L. A. Burns, J. J. Wilke,
    M. L. Abrams, N. J. Russ, M. L. Leininger, C. L. Janssen, E. T. Seidl,
    W. D. Allen, H. F. Schaefer, R. A. King, E. F. Valeev, C. D. Sherrill,
    and T. D. Crawford, WIREs Comput. Mol. Sci. 2, 556-565 (2012)
    (doi: 10.1002/wcms.93)

                         Additional Contributions by
    A. E. DePrince, M. Saitow, U. Bozkaya, A. Yu. Sokolov
    -----------------------------------------------------------------------


    Psi4 started on: Tue Jul  5 16:47:13 2016

    Process ID:  16619
    PSI4DATADIR: /export131/home/mjharvey/miniconda3/share
    Memory level set to 256.000 MB

  ==> Input File <==

--------------------------------------------------------------------------
set {
	reference rhf
	basis 6-31G*
}


set_num_threads( 1 )
memory 2 gb

molecule MOL {
0 1

H	 -2.444412	 -1.769197	 1.502321
C	 -1.910696	 -1.079486	 0.875566
C	 -2.585950	 -0.132439	 0.124512
C	 -0.534730	 -1.128886	 0.810553
H	 -3.659064	 -0.077770	 0.161660
C	 -1.886021	 0.749048	 -0.677865
H	 0.016738	 -1.848612	 1.378580
C	 0.154804	 -0.237046	 -0.000077
H	 -2.428317	 1.476669	 -1.252824
C	 -0.495867	 0.731709	 -0.771551
N	 1.611208	 -0.370857	 -0.000034
C	 0.166395	 1.743187	 -1.681084
O	 2.274126	 0.622059	 -0.008063
O	 2.068510	 -1.474748	 0.007823
H	 0.738954	 1.261144	 -2.461430
H	 -0.596241	 2.359625	 -2.140178
H	 0.847169	 2.382307	 -1.135928

	symmetry c1
}
ee = energy('scf')
oeprop('DIPOLE', 'QUADRUPOLE', 'MULLIKEN_CHARGES')
f=open( 'psi4out.xyz', 'w' )
f.write( "17  " )
f.write( str(ee) + "\n" )
f.write( MOL.save_string_xyz() )
f.close()
--------------------------------------------------------------------------

  Memory set to   2.000 GiB by Python script.

*** tstart() called on cx1-3-4-1.cx1.hpc.ic.ac.uk
*** at Tue Jul  5 16:47:13 2016


         ---------------------------------------------------------
                                   SCF
            by Justin Turney, Rob Parrish, and Andy Simmonett
                              RHF Reference
                        1 Threads,   2000 MiB Core
         ---------------------------------------------------------

  ==> Geometry <==

    Molecular point group: c1
    Full point group: C1

    Geometry (in Angstrom), charge = 0, multiplicity = 1:

       Center              X                  Y                   Z               Mass       
    ------------   -----------------  -----------------  -----------------  -----------------
           H         -2.439545950297    -1.716186218430     1.646959404381     1.007825032070
           C         -1.905829950297    -1.026475218430     1.020204404381    12.000000000000
           C         -2.581083950297    -0.079428218430     0.269150404381    12.000000000000
           C         -0.529863950297    -1.075875218430     0.955191404381    12.000000000000
           H         -3.654197950297    -0.024759218430     0.306298404381     1.007825032070
           C         -1.881154950297     0.802058781570    -0.533226595619    12.000000000000
           H          0.021604049703    -1.795601218430     1.523218404381     1.007825032070
           C          0.159670049703    -0.184035218430     0.144561404381    12.000000000000
           H         -2.423450950297     1.529679781570    -1.108185595619     1.007825032070
           C         -0.491000950297     0.784719781570    -0.626912595619    12.000000000000
           N          1.616074049703    -0.317846218430     0.144604404381    14.003074004780
           C          0.171261049703     1.796197781570    -1.536445595619    12.000000000000
           O          2.278992049703     0.675069781570     0.136575404381    15.994914619560
           O          2.073376049703    -1.421737218430     0.152461404381    15.994914619560
           H          0.743820049703     1.314154781570    -2.316791595619     1.007825032070
           H         -0.591374950297     2.412635781570    -1.995539595619     1.007825032070
           H          0.852035049703     2.435317781570    -0.991289595619     1.007825032070

  Running in c1 symmetry.

  Rotational constants: A =      0.07606  B =      0.04171  C =      0.02826 [cm^-1]
  Rotational constants: A =   2280.21281  B =   1250.55172  C =    847.12842 [MHz]
  Nuclear repulsion =  508.408835917125202

  Charge       = 0
  Multiplicity = 1
  Electrons    = 72
  Nalpha       = 36
  Nbeta        = 36

  ==> Algorithm <==

  SCF Algorithm Type is DF.
  DIIS enabled.
  MOM disabled.
  Fractional occupation disabled.
  Guess Type is CORE.
  Energy threshold   = 1.00e-06
  Density threshold  = 1.00e-06
  Integral threshold = 0.00e+00

  ==> Primary Basis <==

  Basis Set: 6-31G*
    Number of shells: 74
    Number of basis function: 164
    Number of Cartesian functions: 164
    Spherical Harmonics?: false
    Max angular momentum: 2

  ==> Pre-Iterations <==

   -------------------------------------------------------
    Irrep   Nso     Nmo     Nalpha   Nbeta   Ndocc  Nsocc
   -------------------------------------------------------
     A        164     164       0       0       0       0
   -------------------------------------------------------
    Total     164     164      36      36      36       0
   -------------------------------------------------------

 OEINTS: Overlap, kinetic, potential, dipole, and quadrupole integrals
         stored in file 35.

  ==> Integral Setup <==

  ==> DFJK: Density-Fitted J/K Matrices <==

    J tasked:                  Yes
    K tasked:                  Yes
    wK tasked:                  No
    OpenMP threads:              1
    Integrals threads:           1
    Memory (MB):              1430
    Algorithm:                Core
    Integral Cache:           NONE
    Schwarz Cutoff:          1E-12
    Fitting Condition:       1E-12

   => Auxiliary Basis Set <=

  Basis Set: 
    Number of shells: 303
    Number of basis function: 985
    Number of Cartesian functions: 985
    Spherical Harmonics?: false
    Max angular momentum: 3

  Minimum eigenvalue in the overlap matrix is 3.7768214430E-04.
  Using Symmetric Orthogonalization.
  SCF Guess: Core (One-Electron) Hamiltonian.

  ==> Iterations <==

                           Total Energy        Delta E     RMS |[F,P]|

   @DF-RHF iter   1:  -359.28909955157110   -3.59289e+02   6.81336e-02 
   @DF-RHF iter   2:  -293.14475327853904    6.61443e+01   5.81131e-02 DIIS
   @DF-RHF iter   3:  -349.92013507907654   -5.67754e+01   6.34298e-02 DIIS
   @DF-RHF iter   4:  -453.68188739677328   -1.03762e+02   3.46153e-02 DIIS
   @DF-RHF iter   5:  -460.16993352242446   -6.48805e+00   2.52189e-02 DIIS
   @DF-RHF iter   6:  -472.62453631482265   -1.24546e+01   5.93839e-03 DIIS
   @DF-RHF iter   7:  -473.11720206695361   -4.92666e-01   2.63468e-03 DIIS
   @DF-RHF iter   8:  -473.19569758672822   -7.84955e-02   7.04440e-04 DIIS
   @DF-RHF iter   9:  -473.20325302684171   -7.55544e-03   2.82667e-04 DIIS
   @DF-RHF iter  10:  -473.20451747233085   -1.26445e-03   1.23117e-04 DIIS
   @DF-RHF iter  11:  -473.20485403299494   -3.36561e-04   3.84799e-05 DIIS
   @DF-RHF iter  12:  -473.20489160558134   -3.75726e-05   1.71804e-05 DIIS
   @DF-RHF iter  13:  -473.20490638639524   -1.47808e-05   1.01086e-05 DIIS
   @DF-RHF iter  14:  -473.20491037502518   -3.98863e-06   3.91603e-06 DIIS
   @DF-RHF iter  15:  -473.20491098184834   -6.06823e-07   1.76004e-06 DIIS
   @DF-RHF iter  16:  -473.20491106735142   -8.55031e-08   4.90553e-07 DIIS

  ==> Post-Iterations <==

    Orbital Energies (a.u.)
    -----------------------

    Doubly Occupied:                                                      

       1A    -20.600703     2A    -20.599901     3A    -15.853026  
       4A    -11.303726     5A    -11.282536     6A    -11.267567  
       7A    -11.262428     8A    -11.254878     9A    -11.253766  
      10A    -11.236218    11A     -1.632857    12A     -1.413736  
      13A     -1.199855    14A     -1.091882    15A     -1.073169  
      16A     -0.980282    17A     -0.932597    18A     -0.849882  
      19A     -0.820803    20A     -0.770013    21A     -0.731479  
      22A     -0.725973    23A     -0.695069    24A     -0.659040  
      25A     -0.637237    26A     -0.599360    27A     -0.593773  
      28A     -0.566041    29A     -0.541483    30A     -0.521962  
      31A     -0.520393    32A     -0.486861    33A     -0.480776  
      34A     -0.447286    35A     -0.367079    36A     -0.353878  

    Virtual:                                                              

      37A      0.074190    38A      0.122606    39A      0.161671  
      40A      0.223236    41A      0.252911    42A      0.277002  
      43A      0.302902    44A      0.309376    45A      0.314779  
      46A      0.332250    47A      0.363969    48A      0.385594  
      49A      0.398762    50A      0.449763    51A      0.478370  
      52A      0.507298    53A      0.522508    54A      0.543518  
      55A      0.614056    56A      0.677700    57A      0.697373  
      58A      0.708326    59A      0.714220    60A      0.732264  
      61A      0.750671    62A      0.793298    63A      0.799852  
      64A      0.806585    65A      0.816087    66A      0.827215  
      67A      0.834745    68A      0.853577    69A      0.887770  
      70A      0.903583    71A      0.919779    72A      0.941247  
      73A      0.980552    74A      0.986427    75A      1.035812  
      76A      1.046711    77A      1.074992    78A      1.085267  
      79A      1.090124    80A      1.099227    81A      1.135441  
      82A      1.152768    83A      1.164004    84A      1.165174  
      85A      1.198653    86A      1.202763    87A      1.211288  
      88A      1.241606    89A      1.268986    90A      1.291095  
      91A      1.317502    92A      1.324131    93A      1.351074  
      94A      1.372810    95A      1.385817    96A      1.405332  
      97A      1.437397    98A      1.477813    99A      1.497898  
     100A      1.569364   101A      1.635125   102A      1.643496  
     103A      1.680316   104A      1.693970   105A      1.732540  
     106A      1.741900   107A      1.747585   108A      1.758657  
     109A      1.863825   110A      1.904489   111A      2.003473  
     112A      2.023750   113A      2.048510   114A      2.083431  
     115A      2.111936   116A      2.138776   117A      2.144125  
     118A      2.153626   119A      2.216491   120A      2.239005  
     121A      2.261941   122A      2.279808   123A      2.288020  
     124A      2.360065   125A      2.378545   126A      2.407029  
     127A      2.431225   128A      2.451386   129A      2.469876  
     130A      2.484672   131A      2.533654   132A      2.551457  
     133A      2.586992   134A      2.628498   135A      2.640849  
     136A      2.687531   137A      2.723491   138A      2.789116  
     139A      2.830049   140A      2.897094   141A      2.937364  
     142A      2.996648   143A      3.013478   144A      3.033803  
     145A      3.095772   146A      3.109024   147A      3.131937  
     148A      3.195278   149A      3.230427   150A      3.286480  
     151A      3.303996   152A      3.484006   153A      3.575503  
     154A      3.814650   155A      4.154771   156A      4.303891  
     157A      4.324920   158A      4.503693   159A      4.532667  
     160A      4.543854   161A      4.681266   162A      4.774831  
     163A      4.813686   164A      5.135027  

    Final Occupation by Irrep:
              A 
    DOCC [    36 ]

  Energy converged.

  @DF-RHF Final Energy:  -473.20491106735142

   => Energetics <=

    Nuclear Repulsion Energy =            508.4088359171252023
    One-Electron Energy =               -1652.0123357251773086
    Two-Electron Energy =                 670.3985887407009159
    DFT Exchange-Correlation Energy =       0.0000000000000000
    Empirical Dispersion Energy =           0.0000000000000000
    PCM Polarization Energy =               0.0000000000000000
    EFP Energy =                            0.0000000000000000
    Total Energy =                       -473.2049110673513042

    Alert: EFP and PCM quantities not currently incorporated into SCF psivars.

Properties will be evaluated at   0.000000,   0.000000,   0.000000 Bohr
  ==> Properties <==


Properties computed using the SCF density matrix

  Nuclear Dipole Moment: (a.u.)
     X:    -7.0065      Y:     3.8927      Z:    -2.7508

  Electronic Dipole Moment: (a.u.)
     X:     5.1594      Y:    -3.5900      Z:     2.6745

  Dipole Moment: (a.u.)
     X:    -1.8471      Y:     0.3027      Z:    -0.0764     Total:     1.8733

  Dipole Moment: (Debye)
     X:    -4.6948      Y:     0.7695      Z:    -0.1941     Total:     4.7614


  Saving occupied orbitals to File 180.

*** tstop() called on cx1-3-4-1.cx1.hpc.ic.ac.uk at Tue Jul  5 16:47:36 2016
Module time:
	user time   =      21.41 seconds =       0.36 minutes
	system time =       0.26 seconds =       0.00 minutes
	total time  =         23 seconds =       0.38 minutes
Total time:
	user time   =      21.41 seconds =       0.36 minutes
	system time =       0.26 seconds =       0.00 minutes
	total time  =         23 seconds =       0.38 minutes


Properties will be evaluated at   0.000000,   0.000000,   0.000000 Bohr

Properties computed using the  density matrix

  Nuclear Dipole Moment: (a.u.)
     X:    -7.0065      Y:     3.8927      Z:    -2.7508

  Electronic Dipole Moment: (a.u.)
     X:     5.1594      Y:    -3.5900      Z:     2.6745

  Dipole Moment: (a.u.)
     X:    -1.8471      Y:     0.3027      Z:    -0.0764     Total:     1.8733

  Dipole Moment: (Debye)
     X:    -4.6948      Y:     0.7695      Z:    -0.1941     Total:     4.7614

  Quadrupole Moment: (Debye Ang)
    XX:   -61.3314     YY:   -58.0137     ZZ:   -54.7655
    XY:     1.4688     XZ:    -1.4008     YZ:    -5.2370

  Traceless Quadrupole Moment: (Debye Ang)
    XX:    -3.2945     YY:     0.0232     ZZ:     3.2714
    XY:     1.4688     XZ:    -1.4008     YZ:    -5.2370

  Mulliken Charges: (a.u.)
   Center  Symbol    Alpha    Beta     Spin     Total
       1     H     0.38923  0.38923  0.00000  0.22153
       2     C     3.11142  3.11142  0.00000 -0.22284
       3     C     3.08268  3.08268  0.00000 -0.16536
       4     C     3.08251  3.08251  0.00000 -0.16503
       5     H     0.38996  0.38996  0.00000  0.22008
       6     C     3.12477  3.12477  0.00000 -0.24953
       7     H     0.37062  0.37062  0.00000  0.25876
       8     C     2.92249  2.92249  0.00000  0.15502
       9     H     0.39293  0.39293  0.00000  0.21414
      10     C     2.96231  2.96231  0.00000  0.07537
      11     N     3.26179  3.26179  0.00000  0.47643
      12     C     3.24810  3.24810  0.00000 -0.49619
      13     O     4.22901  4.22901  0.00000 -0.45801
      14     O     4.22767  4.22767  0.00000 -0.45535
      15     H     0.40337  0.40337  0.00000  0.19325
      16     H     0.41180  0.41180  0.00000  0.17640
      17     H     0.38934  0.38934  0.00000  0.22133

   Total alpha = 36.00000, Total beta = 36.00000, Total charge =  0.00000


*** PSI4 exiting successfully. Buy a developer a beer!
