    -----------------------------------------------------------------------
          Psi4: An Open-Source Ab Initio Electronic Structure Package
                              Psi4 (no tag) Driver

                          Git: Rev {detached?}  

    J. M. Turney, A. C. Simmonett, R. M. Parrish, E. G. Hohenstein,
    F. A. Evangelista, J. T. Fermann, B. J. Mintz, L. A. Burns, J. J. Wilke,
    M. L. Abrams, N. J. Russ, M. L. Leininger, C. L. Janssen, E. T. Seidl,
    W. D. Allen, H. F. Schaefer, R. A. King, E. F. Valeev, C. D. Sherrill,
    and T. D. Crawford, WIREs Comput. Mol. Sci. 2, 556-565 (2012)
    (doi: 10.1002/wcms.93)

                         Additional Contributions by
    A. E. DePrince, M. Saitow, U. Bozkaya, A. Yu. Sokolov
    -----------------------------------------------------------------------


    Psi4 started on: Tue Jul  5 17:01:02 2016

    Process ID:  16192
    PSI4DATADIR: /export131/home/mjharvey/miniconda3/share
    Memory level set to 256.000 MB

  ==> Input File <==

--------------------------------------------------------------------------
set {
	reference rhf
	basis 6-31G*
}


set_num_threads( 1 )
memory 2 gb

molecule MOL {
0 1

H	 -0.000158	 1.970498	 0.756846
O	 -0.000074	 1.880206	 -0.189275
C	 -0.000015	 0.544847	 -0.545111
C	 -1.146713	 -0.178430	 0.153418
C	 1.372058	 -0.064025	 -0.275501
H	 -0.178470	 0.486751	 -1.608540
F	 -1.988385	 -0.643758	 -0.744692
F	 -0.727543	 -1.191101	 0.882221
F	 -1.814053	 0.649093	 0.941746
F	 2.283717	 0.570380	 -0.981153
F	 1.423530	 -1.339565	 -0.596012
F	 1.696156	 0.053849	 1.002248

	symmetry c1
}
set optking {
	frozen_dihedral = ("
		6 3 2 1
	")
}

ee = energy('scf')
oeprop('DIPOLE', 'QUADRUPOLE', 'MULLIKEN_CHARGES')
f=open( 'psi4out.xyz', 'w' )
f.write( "12  " )
f.write( str(ee) + "\n" )
f.write( MOL.save_string_xyz() )
f.close()
--------------------------------------------------------------------------

  Memory set to   2.000 GiB by Python script.

*** tstart() called on cx1-3-4-4.cx1.hpc.ic.ac.uk
*** at Tue Jul  5 17:01:03 2016


         ---------------------------------------------------------
                                   SCF
            by Justin Turney, Rob Parrish, and Andy Simmonett
                              RHF Reference
                        1 Threads,   2000 MiB Core
         ---------------------------------------------------------

  ==> Geometry <==

    Molecular point group: c1
    Full point group: C1

    Geometry (in Angstrom), charge = 0, multiplicity = 1:

       Center              X                  Y                   Z               Mass       
    ------------   -----------------  -----------------  -----------------  -----------------
           H         -0.113945273675     1.970134828773     0.770596677459     1.007825032070
           O         -0.113861273675     1.879842828773    -0.175524322541    15.994914619560
           C         -0.113802273675     0.544483828773    -0.531360322541    12.000000000000
           C         -1.260500273675    -0.178793171227     0.167168677459    12.000000000000
           C          1.258270726325    -0.064388171227    -0.261750322541    12.000000000000
           H         -0.292257273675     0.486387828773    -1.594789322541     1.007825032070
           F         -2.102172273675    -0.644121171227    -0.730941322541    18.998403224000
           F         -0.841330273675    -1.191464171227     0.895971677459    18.998403224000
           F         -1.927840273675     0.648729828773     0.955496677459    18.998403224000
           F          2.169929726325     0.570016828773    -0.967402322541    18.998403224000
           F          1.309742726325    -1.339928171227    -0.582261322541    18.998403224000
           F          1.582368726325     0.053485828773     1.015998677459    18.998403224000

  Running in c1 symmetry.

  Rotational constants: A =      0.07207  B =      0.03576  C =      0.03167 [cm^-1]
  Rotational constants: A =   2160.69427  B =   1072.15123  C =    949.42043 [MHz]
  Nuclear repulsion =  671.087422121630993

  Charge       = 0
  Multiplicity = 1
  Electrons    = 82
  Nalpha       = 41
  Nbeta        = 41

  ==> Algorithm <==

  SCF Algorithm Type is DF.
  DIIS enabled.
  MOM disabled.
  Fractional occupation disabled.
  Guess Type is CORE.
  Energy threshold   = 1.00e-06
  Density threshold  = 1.00e-06
  Integral threshold = 0.00e+00

  ==> Primary Basis <==

  Basis Set: 6-31G*
    Number of shells: 64
    Number of basis function: 154
    Number of Cartesian functions: 154
    Spherical Harmonics?: false
    Max angular momentum: 2

  ==> Pre-Iterations <==

   -------------------------------------------------------
    Irrep   Nso     Nmo     Nalpha   Nbeta   Ndocc  Nsocc
   -------------------------------------------------------
     A        154     154       0       0       0       0
   -------------------------------------------------------
    Total     154     154      41      41      41       0
   -------------------------------------------------------

 OEINTS: Overlap, kinetic, potential, dipole, and quadrupole integrals
         stored in file 35.

  ==> Integral Setup <==

  ==> DFJK: Density-Fitted J/K Matrices <==

    J tasked:                  Yes
    K tasked:                  Yes
    wK tasked:                  No
    OpenMP threads:              1
    Integrals threads:           1
    Memory (MB):              1430
    Algorithm:                Core
    Integral Cache:           NONE
    Schwarz Cutoff:          1E-12
    Fitting Condition:       1E-12

   => Auxiliary Basis Set <=

  Basis Set: 
    Number of shells: 258
    Number of basis function: 860
    Number of Cartesian functions: 860
    Spherical Harmonics?: false
    Max angular momentum: 3

  Minimum eigenvalue in the overlap matrix is 1.0497818209E-03.
  Using Symmetric Orthogonalization.
  SCF Guess: Core (One-Electron) Hamiltonian.

  ==> Iterations <==

                           Total Energy        Delta E     RMS |[F,P]|

   @DF-RHF iter   1:  -701.75597084132289   -7.01756e+02   6.77394e-02 
   @DF-RHF iter   2:  -563.38849614786216    1.38367e+02   8.57143e-02 DIIS
   @DF-RHF iter   3:  -736.02670804346997   -1.72638e+02   4.85181e-02 DIIS
   @DF-RHF iter   4:  -748.18223039602219   -1.21555e+01   4.39654e-02 DIIS
   @DF-RHF iter   5:  -778.71369758768230   -3.05315e+01   2.39231e-02 DIIS
   @DF-RHF iter   6:  -785.88735317895350   -7.17366e+00   6.63336e-03 DIIS
   @DF-RHF iter   7:  -786.23472361997472   -3.47370e-01   1.98605e-03 DIIS
   @DF-RHF iter   8:  -786.26501401764824   -3.02904e-02   7.92594e-04 DIIS
   @DF-RHF iter   9:  -786.27060321622082   -5.58920e-03   1.26264e-04 DIIS
   @DF-RHF iter  10:  -786.27088801186699   -2.84796e-04   3.93249e-05 DIIS
   @DF-RHF iter  11:  -786.27091030295321   -2.22911e-05   1.32467e-05 DIIS
   @DF-RHF iter  12:  -786.27091274228576   -2.43933e-06   4.07398e-06 DIIS
   @DF-RHF iter  13:  -786.27091301931421   -2.77028e-07   8.86888e-07 DIIS

  ==> Post-Iterations <==

    Orbital Energies (a.u.)
    -----------------------

    Doubly Occupied:                                                      

       1A    -26.364683     2A    -26.363997     3A    -26.360955  
       4A    -26.359980     5A    -26.359405     6A    -26.355755  
       7A    -20.613108     8A    -11.528315     9A    -11.522988  
      10A    -11.347123    11A     -1.766325    12A     -1.757648  
      13A     -1.662896    14A     -1.660257    15A     -1.656817  
      16A     -1.653294    17A     -1.432774    18A     -1.101444  
      19A     -0.997613    20A     -0.936789    21A     -0.867732  
      22A     -0.861172    23A     -0.852132    24A     -0.845502  
      25A     -0.834893    26A     -0.811725    27A     -0.734093  
      28A     -0.732096    29A     -0.728288    30A     -0.723275  
      31A     -0.688272    32A     -0.686449    33A     -0.681540  
      34A     -0.677354    35A     -0.667761    36A     -0.663930  
      37A     -0.655803    38A     -0.649010    39A     -0.616769  
      40A     -0.550041    41A     -0.504274  

    Virtual:                                                              

      42A      0.209948    43A      0.241470    44A      0.284127  
      45A      0.338810    46A      0.366530    47A      0.402847  
      48A      0.453032    49A      0.461589    50A      0.494095  
      51A      0.535922    52A      0.553933    53A      0.669014  
      54A      0.674054    55A      0.707236    56A      0.736382  
      57A      0.751255    58A      0.780850    59A      0.797149  
      60A      0.844258    61A      0.909534    62A      0.972615  
      63A      1.052315    64A      1.070430    65A      1.110562  
      66A      1.168886    67A      1.211811    68A      1.258330  
      69A      1.294855    70A      1.302349    71A      1.342899  
      72A      1.358940    73A      1.367460    74A      1.389704  
      75A      1.421659    76A      1.467275    77A      1.538364  
      78A      1.570624    79A      1.582213    80A      1.594477  
      81A      1.615989    82A      1.624423    83A      1.631412  
      84A      1.645655    85A      1.648358    86A      1.657277  
      87A      1.661802    88A      1.676141    89A      1.715415  
      90A      1.723911    91A      1.746392    92A      1.773910  
      93A      1.877820    94A      1.903683    95A      1.917225  
      96A      1.958580    97A      1.988514    98A      2.012870  
      99A      2.033406   100A      2.083288   101A      2.096487  
     102A      2.099846   103A      2.109991   104A      2.120525  
     105A      2.131403   106A      2.154675   107A      2.170596  
     108A      2.198957   109A      2.291214   110A      2.295522  
     111A      2.304194   112A      2.332346   113A      2.336000  
     114A      2.354098   115A      2.379579   116A      2.385331  
     117A      2.396507   118A      2.399782   119A      2.409063  
     120A      2.482914   121A      2.506003   122A      2.531665  
     123A      2.583343   124A      2.609141   125A      2.667726  
     126A      2.753044   127A      2.774295   128A      2.811897  
     129A      2.847824   130A      2.927227   131A      3.003092  
     132A      3.061452   133A      3.137565   134A      3.183208  
     135A      3.193276   136A      3.224013   137A      3.263637  
     138A      3.305659   139A      3.408173   140A      3.412102  
     141A      3.422876   142A      3.451114   143A      3.468706  
     144A      3.479229   145A      4.157809   146A      4.573023  
     147A      4.724451   148A      4.894687   149A      5.052850  
     150A      5.157041   151A      5.182320   152A      5.450537  
     153A      5.824820   154A      6.668530  

    Final Occupation by Irrep:
              A 
    DOCC [    41 ]

  Energy converged.

  @DF-RHF Final Energy:  -786.27091301931421

   => Energetics <=

    Nuclear Repulsion Energy =            671.0874221216309934
    One-Electron Energy =               -2429.0483387045101153
    Two-Electron Energy =                 971.6900035635645736
    DFT Exchange-Correlation Energy =       0.0000000000000000
    Empirical Dispersion Energy =           0.0000000000000000
    PCM Polarization Energy =               0.0000000000000000
    EFP Energy =                            0.0000000000000000
    Total Energy =                       -786.2709130193146621

    Alert: EFP and PCM quantities not currently incorporated into SCF psivars.

Properties will be evaluated at   0.000000,   0.000000,   0.000000 Bohr
  ==> Properties <==


Properties computed using the SCF density matrix

  Nuclear Dipole Moment: (a.u.)
     X:    -0.5612      Y:     4.1074      Z:    -1.3271

  Electronic Dipole Moment: (a.u.)
     X:     0.4288      Y:    -3.9503      Z:     1.3575

  Dipole Moment: (a.u.)
     X:    -0.1325      Y:     0.1571      Z:     0.0303     Total:     0.2078

  Dipole Moment: (Debye)
     X:    -0.3367      Y:     0.3994      Z:     0.0771     Total:     0.5281


  Saving occupied orbitals to File 180.

*** tstop() called on cx1-3-4-4.cx1.hpc.ic.ac.uk at Tue Jul  5 17:01:19 2016
Module time:
	user time   =      15.24 seconds =       0.25 minutes
	system time =       0.20 seconds =       0.00 minutes
	total time  =         16 seconds =       0.27 minutes
Total time:
	user time   =      15.24 seconds =       0.25 minutes
	system time =       0.20 seconds =       0.00 minutes
	total time  =         16 seconds =       0.27 minutes


Properties will be evaluated at   0.000000,   0.000000,   0.000000 Bohr

Properties computed using the  density matrix

  Nuclear Dipole Moment: (a.u.)
     X:    -0.5612      Y:     4.1074      Z:    -1.3271

  Electronic Dipole Moment: (a.u.)
     X:     0.4288      Y:    -3.9503      Z:     1.3575

  Dipole Moment: (a.u.)
     X:    -0.1325      Y:     0.1571      Z:     0.0303     Total:     0.2078

  Dipole Moment: (Debye)
     X:    -0.3367      Y:     0.3994      Z:     0.0771     Total:     0.5281

  Quadrupole Moment: (Debye Ang)
    XX:   -56.6042     YY:   -55.1538     ZZ:   -50.0488
    XY:    -0.2099     XZ:     0.6425     YZ:     2.9356

  Traceless Quadrupole Moment: (Debye Ang)
    XX:    -2.6686     YY:    -1.2182     ZZ:     3.8868
    XY:    -0.2099     XZ:     0.6425     YZ:     2.9356

  Mulliken Charges: (a.u.)
   Center  Symbol    Alpha    Beta     Spin     Total
       1     H     0.26656  0.26656  0.00000  0.46688
       2     O     4.36047  4.36047  0.00000 -0.72094
       3     C     3.07647  3.07647  0.00000 -0.15293
       4     C     2.42746  2.42746  0.00000  1.14507
       5     C     2.43319  2.43319  0.00000  1.13361
       6     H     0.37023  0.37023  0.00000  0.25954
       7     F     4.67691  4.67691  0.00000 -0.35382
       8     F     4.67408  4.67408  0.00000 -0.34816
       9     F     4.67962  4.67962  0.00000 -0.35924
      10     F     4.67541  4.67541  0.00000 -0.35081
      11     F     4.67638  4.67638  0.00000 -0.35275
      12     F     4.68323  4.68323  0.00000 -0.36646

   Total alpha = 41.00000, Total beta = 41.00000, Total charge =  0.00000


*** PSI4 exiting successfully. Buy a developer a beer!
