    -----------------------------------------------------------------------
          Psi4: An Open-Source Ab Initio Electronic Structure Package
                              Psi4 (no tag) Driver

                          Git: Rev {detached?}  

    J. M. Turney, A. C. Simmonett, R. M. Parrish, E. G. Hohenstein,
    F. A. Evangelista, J. T. Fermann, B. J. Mintz, L. A. Burns, J. J. Wilke,
    M. L. Abrams, N. J. Russ, M. L. Leininger, C. L. Janssen, E. T. Seidl,
    W. D. Allen, H. F. Schaefer, R. A. King, E. F. Valeev, C. D. Sherrill,
    and T. D. Crawford, WIREs Comput. Mol. Sci. 2, 556-565 (2012)
    (doi: 10.1002/wcms.93)

                         Additional Contributions by
    A. E. DePrince, M. Saitow, U. Bozkaya, A. Yu. Sokolov
    -----------------------------------------------------------------------


    Psi4 started on: Tue Jul  5 18:09:11 2016

    Process ID:   5160
    PSI4DATADIR: /export131/home/mjharvey/miniconda3/share
    Memory level set to 256.000 MB

  ==> Input File <==

--------------------------------------------------------------------------
set {
	reference rhf
	basis 6-31G*
}


set_num_threads( 1 )
memory 2 gb

molecule MOL {
0 1

H	 -3.003711	 -0.050209	 1.146763
O	 -2.342290	 -0.613256	 1.521690
C	 -1.480658	 -1.070237	 0.510348
C	 -0.536021	 0.008749	 -0.007509
H	 -0.908329	 -1.875382	 0.952902
H	 -2.052221	 -1.495218	 -0.313962
C	 0.166708	 0.802776	 1.096376
H	 0.205926	 -0.460949	 -0.648028
H	 -1.110022	 0.689920	 -0.633525
C	 -0.796005	 1.689115	 1.891615
H	 0.944683	 1.418355	 0.653452
H	 0.663145	 0.112698	 1.778786
C	 -2.087810	 0.996018	 2.340165
H	 -0.279418	 2.086455	 2.763456
H	 -1.061172	 2.548414	 1.279250
C	 -3.034785	 0.600176	 1.203932
H	 -1.819572	 0.099905	 2.895905
H	 -2.615855	 1.639565	 3.042200
C	 -4.465221	 1.099239	 1.418936
H	 -3.044660	 -0.484477	 1.106250
H	 -2.666261	 0.987989	 0.257311
C	 -5.411106	 0.710962	 0.283063
H	 -4.847259	 0.703375	 2.357459
H	 -4.456195	 2.181939	 1.526468
H	 -5.467273	 -0.368187	 0.171231
H	 -6.416738	 1.077069	 0.465559
H	 -5.076338	 1.123259	 -0.664726

	symmetry c1
}
set optking {
	frozen_dihedral = ("
		14 10 7 4,
		14 10 13 16,
		10 7 4 8,
		8 4 3 2,
		20 16 19 22,
		4 3 2 1
	")
}

ee = energy('scf')
oeprop('DIPOLE', 'QUADRUPOLE', 'MULLIKEN_CHARGES')
f=open( 'psi4out.xyz', 'w' )
f.write( "27  " )
f.write( str(ee) + "\n" )
f.write( MOL.save_string_xyz() )
f.close()
--------------------------------------------------------------------------

  Memory set to   2.000 GiB by Python script.

*** tstart() called on cx1-3-4-2.cx1.hpc.ic.ac.uk
*** at Tue Jul  5 18:09:11 2016


         ---------------------------------------------------------
                                   SCF
            by Justin Turney, Rob Parrish, and Andy Simmonett
                              RHF Reference
                        1 Threads,   2000 MiB Core
         ---------------------------------------------------------

  ==> Geometry <==

    Molecular point group: c1
    Full point group: C1

    Geometry (in Angstrom), charge = 0, multiplicity = 1:

       Center              X                  Y                   Z               Mass       
    ------------   -----------------  -----------------  -----------------  -----------------
           H         -0.755663826428    -0.497778947411     0.013630343788     1.007825032070
           O         -0.094242826428    -1.060825947411     0.388557343788    15.994914619560
           C          0.767389173572    -1.517806947411    -0.622784656212    12.000000000000
           C          1.712026173572    -0.438820947411    -1.140641656212    12.000000000000
           H          1.339718173572    -2.322951947411    -0.180230656212     1.007825032070
           H          0.195826173572    -1.942787947411    -1.447094656212     1.007825032070
           C          2.414755173572     0.355206052589    -0.036756656212    12.000000000000
           H          2.453973173572    -0.908518947411    -1.781160656212     1.007825032070
           H          1.138025173572     0.242350052589    -1.766657656212     1.007825032070
           C          1.452042173572     1.241545052589     0.758482343788    12.000000000000
           H          3.192730173572     0.970785052589    -0.479680656212     1.007825032070
           H          2.911192173572    -0.334871947411     0.645653343788     1.007825032070
           C          0.160237173572     0.548448052589     1.207032343788    12.000000000000
           H          1.968629173572     1.638885052589     1.630323343788     1.007825032070
           H          1.186875173572     2.100844052589     0.146117343788     1.007825032070
           C         -0.786737826428     0.152606052589     0.070799343788    12.000000000000
           H          0.428475173572    -0.347664947411     1.762772343788     1.007825032070
           H         -0.367807826428     1.191995052589     1.909067343788     1.007825032070
           C         -2.217173826428     0.651669052589     0.285803343788    12.000000000000
           H         -0.796612826428    -0.932046947411    -0.026882656212     1.007825032070
           H         -0.418213826428     0.540419052589    -0.875821656212     1.007825032070
           C         -3.163058826428     0.263392052589    -0.850069656212    12.000000000000
           H         -2.599211826428     0.255805052589     1.224326343788     1.007825032070
           H         -2.208147826428     1.734369052589     0.393335343788     1.007825032070
           H         -3.219225826428    -0.815756947411    -0.961901656212     1.007825032070
           H         -4.168690826428     0.629499052589    -0.667573656212     1.007825032070
           H         -2.828290826428     0.675689052589    -1.797858656212     1.007825032070

  Running in c1 symmetry.

  Rotational constants: A =      0.09137  B =      0.03652  C =      0.03116 [cm^-1]
  Rotational constants: A =   2739.31308  B =   1094.97299  C =    934.17080 [MHz]
  Nuclear repulsion =  548.640621335438937

  Charge       = 0
  Multiplicity = 1
  Electrons    = 74
  Nalpha       = 37
  Nbeta        = 37

  ==> Algorithm <==

  SCF Algorithm Type is DF.
  DIIS enabled.
  MOM disabled.
  Fractional occupation disabled.
  Guess Type is CORE.
  Energy threshold   = 1.00e-06
  Density threshold  = 1.00e-06
  Integral threshold = 0.00e+00

  ==> Primary Basis <==

  Basis Set: 6-31G*
    Number of shells: 90
    Number of basis function: 171
    Number of Cartesian functions: 171
    Spherical Harmonics?: false
    Max angular momentum: 2

  ==> Pre-Iterations <==

   -------------------------------------------------------
    Irrep   Nso     Nmo     Nalpha   Nbeta   Ndocc  Nsocc
   -------------------------------------------------------
     A        171     171       0       0       0       0
   -------------------------------------------------------
    Total     171     171      37      37      37       0
   -------------------------------------------------------

 OEINTS: Overlap, kinetic, potential, dipole, and quadrupole integrals
         stored in file 35.

  ==> Integral Setup <==

  ==> DFJK: Density-Fitted J/K Matrices <==

    J tasked:                  Yes
    K tasked:                  Yes
    wK tasked:                  No
    OpenMP threads:              1
    Integrals threads:           1
    Memory (MB):              1430
    Algorithm:                Core
    Integral Cache:           NONE
    Schwarz Cutoff:          1E-12
    Fitting Condition:       1E-12

   => Auxiliary Basis Set <=

  Basis Set: 
    Number of shells: 378
    Number of basis function: 1179
    Number of Cartesian functions: 1179
    Spherical Harmonics?: false
    Max angular momentum: 3

  Minimum eigenvalue in the overlap matrix is 1.5996128916E-04.
  Using Symmetric Orthogonalization.
  SCF Guess: Core (One-Electron) Hamiltonian.

  ==> Iterations <==

                           Total Energy        Delta E     RMS |[F,P]|

   @DF-RHF iter   1:  -221.63262571754342   -2.21633e+02   7.75859e-02 
   @DF-RHF iter   2:  -180.81372058479189    4.08189e+01   7.02626e-02 DIIS
   @DF-RHF iter   3:  -298.74507923652914   -1.17931e+02   5.02648e-02 DIIS
   @DF-RHF iter   4:  -270.66382652743710    2.80813e+01   6.59160e-02 DIIS
   @DF-RHF iter   5:  -385.63950874735508   -1.14976e+02   8.68747e-03 DIIS
   @DF-RHF iter   6:  -386.58505035556595   -9.45542e-01   4.31908e-03 DIIS
   @DF-RHF iter   7:  -386.82038746806677   -2.35337e-01   5.63516e-04 DIIS
   @DF-RHF iter   8:  -386.82670643633799   -6.31897e-03   2.13264e-04 DIIS
   @DF-RHF iter   9:  -386.82747933346150   -7.72897e-04   7.97591e-05 DIIS
   @DF-RHF iter  10:  -386.82761560699180   -1.36274e-04   2.51573e-05 DIIS
   @DF-RHF iter  11:  -386.82764030338944   -2.46964e-05   8.57815e-06 DIIS
   @DF-RHF iter  12:  -386.82764478419460   -4.48081e-06   3.36545e-06 DIIS
   @DF-RHF iter  13:  -386.82764547457884   -6.90384e-07   1.24571e-06 DIIS
   @DF-RHF iter  14:  -386.82764555680080   -8.22220e-08   3.29140e-07 DIIS

  ==> Post-Iterations <==

    Orbital Energies (a.u.)
    -----------------------

    Doubly Occupied:                                                      

       1A    -20.505921     2A    -11.282050     3A    -11.227438  
       4A    -11.218933     5A    -11.208692     6A    -11.201465  
       7A    -11.200707     8A    -11.184978     9A    -11.179349  
      10A     -1.774246    11A     -1.162611    12A     -1.084320  
      13A     -1.017584    14A     -1.012033    15A     -0.933528  
      16A     -0.870870    17A     -0.838888    18A     -0.773658  
      19A     -0.753087    20A     -0.686982    21A     -0.662908  
      22A     -0.633332    23A     -0.606597    24A     -0.599427  
      25A     -0.588439    26A     -0.556486    27A     -0.553194  
      28A     -0.538580    29A     -0.503194    30A     -0.490284  
      31A     -0.478654    32A     -0.469156    33A     -0.463443  
      34A     -0.450459    35A     -0.435516    36A     -0.375554  
      37A     -0.230746  

    Virtual:                                                              

      38A      0.212935    39A      0.241880    40A      0.252416  
      41A      0.263633    42A      0.281143    43A      0.297541  
      44A      0.304285    45A      0.314990    46A      0.318540  
      47A      0.319230    48A      0.325961    49A      0.343355  
      50A      0.347282    51A      0.354880    52A      0.357557  
      53A      0.378385    54A      0.385852    55A      0.398494  
      56A      0.418455    57A      0.426036    58A      0.444825  
      59A      0.458135    60A      0.486458    61A      0.489463  
      62A      0.510581    63A      0.599837    64A      0.635760  
      65A      0.706244    66A      0.720042    67A      0.737221  
      68A      0.751692    69A      0.773399    70A      0.780753  
      71A      0.788588    72A      0.837924    73A      0.857603  
      74A      0.898919    75A      0.914817    76A      0.921764  
      77A      0.950956    78A      0.976386    79A      0.990652  
      80A      1.007808    81A      1.030968    82A      1.032772  
      83A      1.074933    84A      1.085547    85A      1.112162  
      86A      1.122344    87A      1.143225    88A      1.148869  
      89A      1.163965    90A      1.170808    91A      1.175735  
      92A      1.191029    93A      1.192592    94A      1.200816  
      95A      1.218840    96A      1.228396    97A      1.238404  
      98A      1.249794    99A      1.256171   100A      1.263511  
     101A      1.285246   102A      1.291244   103A      1.307125  
     104A      1.346779   105A      1.349321   106A      1.474641  
     107A      1.494580   108A      1.543312   109A      1.593192  
     110A      1.609491   111A      1.651368   112A      1.713376  
     113A      1.720197   114A      1.785923   115A      1.830846  
     116A      1.861234   117A      1.878392   118A      1.950595  
     119A      1.977251   120A      2.017389   121A      2.075963  
     122A      2.083433   123A      2.108809   124A      2.170884  
     125A      2.176280   126A      2.208583   127A      2.236227  
     128A      2.268358   129A      2.282996   130A      2.304053  
     131A      2.309491   132A      2.336546   133A      2.364336  
     134A      2.376361   135A      2.414335   136A      2.464669  
     137A      2.500492   138A      2.536706   139A      2.543206  
     140A      2.593100   141A      2.611062   142A      2.669740  
     143A      2.686026   144A      2.706916   145A      2.711022  
     146A      2.722552   147A      2.752193   148A      2.769298  
     149A      2.789416   150A      2.822461   151A      2.868349  
     152A      2.951582   153A      2.980589   154A      2.986513  
     155A      3.035743   156A      3.045440   157A      3.132772  
     158A      3.134607   159A      3.199998   160A      3.245618  
     161A      3.499597   162A      4.545406   163A      4.628288  
     164A      4.673551   165A      4.723207   166A      4.849091  
     167A      4.854116   168A      4.946601   169A      5.049897  
     170A      5.156231   171A      5.504396  

    Final Occupation by Irrep:
              A 
    DOCC [    37 ]

  Energy converged.

  @DF-RHF Final Energy:  -386.82764555680080

   => Energetics <=

    Nuclear Repulsion Energy =            548.6406213354389365
    One-Electron Energy =               -1611.4300395183124692
    Two-Electron Energy =                 675.9617726260732979
    DFT Exchange-Correlation Energy =       0.0000000000000000
    Empirical Dispersion Energy =           0.0000000000000000
    PCM Polarization Energy =               0.0000000000000000
    EFP Energy =                            0.0000000000000000
    Total Energy =                       -386.8276455568002348

    Alert: EFP and PCM quantities not currently incorporated into SCF psivars.

Properties will be evaluated at   0.000000,   0.000000,   0.000000 Bohr
  ==> Properties <==


Properties computed using the SCF density matrix

  Nuclear Dipole Moment: (a.u.)
     X:    -2.3876      Y:     1.7557      Z:    -2.1165

  Electronic Dipole Moment: (a.u.)
     X:     2.8445      Y:    -2.1981      Z:     1.4750

  Dipole Moment: (a.u.)
     X:     0.4569      Y:    -0.4424      Z:    -0.6415     Total:     0.9033

  Dipole Moment: (Debye)
     X:     1.1612      Y:    -1.1244      Z:    -1.6305     Total:     2.2960


  Saving occupied orbitals to File 180.

*** tstop() called on cx1-3-4-2.cx1.hpc.ic.ac.uk at Tue Jul  5 18:09:44 2016
Module time:
	user time   =      32.27 seconds =       0.54 minutes
	system time =       0.30 seconds =       0.01 minutes
	total time  =         33 seconds =       0.55 minutes
Total time:
	user time   =      32.27 seconds =       0.54 minutes
	system time =       0.30 seconds =       0.01 minutes
	total time  =         33 seconds =       0.55 minutes


Properties will be evaluated at   0.000000,   0.000000,   0.000000 Bohr

Properties computed using the  density matrix

  Nuclear Dipole Moment: (a.u.)
     X:    -2.3876      Y:     1.7557      Z:    -2.1165

  Electronic Dipole Moment: (a.u.)
     X:     2.8445      Y:    -2.1981      Z:     1.4750

  Dipole Moment: (a.u.)
     X:     0.4569      Y:    -0.4424      Z:    -0.6415     Total:     0.9033

  Dipole Moment: (Debye)
     X:     1.1612      Y:    -1.1244      Z:    -1.6305     Total:     2.2960

  Quadrupole Moment: (Debye Ang)
    XX:   -61.0899     YY:   -60.4914     ZZ:   -61.1401
    XY:     0.4775     XZ:    -0.4698     YZ:     0.6750

  Traceless Quadrupole Moment: (Debye Ang)
    XX:    -0.1828     YY:     0.4157     ZZ:    -0.2329
    XY:     0.4775     XZ:    -0.4698     YZ:     0.6750

  Mulliken Charges: (a.u.)
   Center  Symbol    Alpha    Beta     Spin     Total
       1     H     0.19962  0.19962  0.00000  0.60076
       2     O     4.21795  4.21795  0.00000 -0.43590
       3     C     3.06761  3.06761  0.00000 -0.13522
       4     C     3.18167  3.18167  0.00000 -0.36334
       5     H     0.40528  0.40528  0.00000  0.18943
       6     H     0.41396  0.41396  0.00000  0.17208
       7     C     3.15451  3.15451  0.00000 -0.30902
       8     H     0.41051  0.41051  0.00000  0.17898
       9     H     0.41545  0.41545  0.00000  0.16910
      10     C     3.15313  3.15313  0.00000 -0.30626
      11     H     0.41615  0.41615  0.00000  0.16770
      12     H     0.42181  0.42181  0.00000  0.15637
      13     C     3.15938  3.15938  0.00000 -0.31876
      14     H     0.41797  0.41797  0.00000  0.16407
      15     H     0.42564  0.42564  0.00000  0.14872
      16     C     3.30359  3.30359  0.00000 -0.60717
      17     H     0.40350  0.40350  0.00000  0.19299
      18     H     0.43906  0.43906  0.00000  0.12189
      19     C     3.17136  3.17136  0.00000 -0.34272
      20     H     0.43098  0.43098  0.00000  0.13805
      21     H     0.41248  0.41248  0.00000  0.17504
      22     C     3.24521  3.24521  0.00000 -0.49042
      23     H     0.42988  0.42988  0.00000  0.14025
      24     H     0.42908  0.42908  0.00000  0.14183
      25     H     0.43155  0.43155  0.00000  0.13690
      26     H     0.41699  0.41699  0.00000  0.16602
      27     H     0.42568  0.42568  0.00000  0.14864

   Total alpha = 37.00000, Total beta = 37.00000, Total charge =  0.00000


*** PSI4 exiting successfully. Buy a developer a beer!
