    -----------------------------------------------------------------------
          Psi4: An Open-Source Ab Initio Electronic Structure Package
                              Psi4 (no tag) Driver

                          Git: Rev {detached?}  

    J. M. Turney, A. C. Simmonett, R. M. Parrish, E. G. Hohenstein,
    F. A. Evangelista, J. T. Fermann, B. J. Mintz, L. A. Burns, J. J. Wilke,
    M. L. Abrams, N. J. Russ, M. L. Leininger, C. L. Janssen, E. T. Seidl,
    W. D. Allen, H. F. Schaefer, R. A. King, E. F. Valeev, C. D. Sherrill,
    and T. D. Crawford, WIREs Comput. Mol. Sci. 2, 556-565 (2012)
    (doi: 10.1002/wcms.93)

                         Additional Contributions by
    A. E. DePrince, M. Saitow, U. Bozkaya, A. Yu. Sokolov
    -----------------------------------------------------------------------


    Psi4 started on: Tue Jul  5 16:30:29 2016

    Process ID:   8680
    PSI4DATADIR: /export131/home/mjharvey/miniconda3/share
    Memory level set to 256.000 MB

  ==> Input File <==

--------------------------------------------------------------------------
set {
	reference rhf
	basis 6-31G*
}


set_num_threads( 1 )
memory 2 gb

molecule MOL {
0 1

H	 -2.499100	 -0.730091	 -0.745082
O	 -2.347518	 -0.290803	 0.079804
C	 -1.184022	 0.487508	 -0.006784
C	 0.062599	 -0.378592	 0.031606
H	 -1.176523	 1.099369	 -0.904519
H	 -1.187323	 1.153111	 0.844927
O	 0.008767	 -1.159275	 1.183741
H	 0.955368	 0.249842	 0.035552
H	 0.104434	 -0.998458	 -0.862038
C	 1.079848	 -2.035741	 1.337801
H	 2.025777	 -1.500976	 1.400054
H	 0.925141	 -2.582162	 2.257797
H	 1.136564	 -2.742490	 0.512525

	symmetry c1
}
set optking {
	frozen_dihedral = ("
		1 2 3 5,
		10 7 4 8,
		4 7 10 13
	")
}

ee = energy('scf')
oeprop('DIPOLE', 'QUADRUPOLE', 'MULLIKEN_CHARGES')
f=open( 'psi4out.xyz', 'w' )
f.write( "13  " )
f.write( str(ee) + "\n" )
f.write( MOL.save_string_xyz() )
f.close()
--------------------------------------------------------------------------

  Memory set to   2.000 GiB by Python script.

*** tstart() called on cx1-49-4-2.cx1.hpc.ic.ac.uk
*** at Tue Jul  5 16:30:29 2016


         ---------------------------------------------------------
                                   SCF
            by Justin Turney, Rob Parrish, and Andy Simmonett
                              RHF Reference
                        1 Threads,   2000 MiB Core
         ---------------------------------------------------------

  ==> Geometry <==

    Molecular point group: c1
    Full point group: C1

    Geometry (in Angstrom), charge = 0, multiplicity = 1:

       Center              X                  Y                   Z               Mass       
    ------------   -----------------  -----------------  -----------------  -----------------
           H         -2.004435202874    -0.040895597450    -1.259475242912     1.007825032070
           O         -1.852853202874     0.398392402550    -0.434589242912    15.994914619560
           C         -0.689357202874     1.176703402550    -0.521177242912    12.000000000000
           C          0.557263797126     0.310603402550    -0.482787242912    12.000000000000
           H         -0.681858202874     1.788564402550    -1.418912242912     1.007825032070
           H         -0.692658202874     1.842306402550     0.330533757088     1.007825032070
           O          0.503431797126    -0.470079597450     0.669347757088    15.994914619560
           H          1.450032797126     0.939037402550    -0.478841242912     1.007825032070
           H          0.599098797126    -0.309262597450    -1.376431242912     1.007825032070
           C          1.574512797126    -1.346545597450     0.823407757088    12.000000000000
           H          2.520441797126    -0.811780597450     0.885660757088     1.007825032070
           H          1.419805797126    -1.892966597450     1.743403757088     1.007825032070
           H          1.631228797126    -2.053294597450    -0.001868242912     1.007825032070

  Running in c1 symmetry.

  Rotational constants: A =      0.44369  B =      0.09174  C =      0.08284 [cm^-1]
  Rotational constants: A =  13301.47933  B =   2750.40872  C =   2483.60526 [MHz]
  Nuclear repulsion =  193.998962627367007

  Charge       = 0
  Multiplicity = 1
  Electrons    = 42
  Nalpha       = 21
  Nbeta        = 21

  ==> Algorithm <==

  SCF Algorithm Type is DF.
  DIIS enabled.
  MOM disabled.
  Fractional occupation disabled.
  Guess Type is CORE.
  Energy threshold   = 1.00e-06
  Density threshold  = 1.00e-06
  Integral threshold = 0.00e+00

  ==> Primary Basis <==

  Basis Set: 6-31G*
    Number of shells: 46
    Number of basis function: 91
    Number of Cartesian functions: 91
    Spherical Harmonics?: false
    Max angular momentum: 2

  ==> Pre-Iterations <==

   -------------------------------------------------------
    Irrep   Nso     Nmo     Nalpha   Nbeta   Ndocc  Nsocc
   -------------------------------------------------------
     A         91      91       0       0       0       0
   -------------------------------------------------------
    Total      91      91      21      21      21       0
   -------------------------------------------------------

 OEINTS: Overlap, kinetic, potential, dipole, and quadrupole integrals
         stored in file 35.

  ==> Integral Setup <==

  ==> DFJK: Density-Fitted J/K Matrices <==

    J tasked:                  Yes
    K tasked:                  Yes
    wK tasked:                  No
    OpenMP threads:              1
    Integrals threads:           1
    Memory (MB):              1430
    Algorithm:                Core
    Integral Cache:           NONE
    Schwarz Cutoff:          1E-12
    Fitting Condition:       1E-12

   => Auxiliary Basis Set <=

  Basis Set: 
    Number of shells: 192
    Number of basis function: 605
    Number of Cartesian functions: 605
    Spherical Harmonics?: false
    Max angular momentum: 3

  Minimum eigenvalue in the overlap matrix is 4.5707308637E-03.
  Using Symmetric Orthogonalization.
  SCF Guess: Core (One-Electron) Hamiltonian.

  ==> Iterations <==

                           Total Energy        Delta E     RMS |[F,P]|

   @DF-RHF iter   1:  -223.58867424290196   -2.23589e+02   7.94455e-02 
   @DF-RHF iter   2:  -166.92919693131597    5.66595e+01   6.75254e-02 DIIS
   @DF-RHF iter   3:  -226.53868066355830   -5.96095e+01   6.94572e-02 DIIS
   @DF-RHF iter   4:  -256.38152270277061   -2.98428e+01   3.93143e-02 DIIS
   @DF-RHF iter   5:  -267.49889028748828   -1.11174e+01   1.01437e-02 DIIS
   @DF-RHF iter   6:  -267.87595795177680   -3.77068e-01   4.11793e-03 DIIS
   @DF-RHF iter   7:  -267.93772036407586   -6.17624e-02   1.37979e-03 DIIS
   @DF-RHF iter   8:  -267.94511774694831   -7.39738e-03   5.47327e-04 DIIS
   @DF-RHF iter   9:  -267.94659467707822   -1.47693e-03   1.95577e-04 DIIS
   @DF-RHF iter  10:  -267.94680666571645   -2.11989e-04   5.34850e-05 DIIS
   @DF-RHF iter  11:  -267.94682612935856   -1.94636e-05   1.84122e-05 DIIS
   @DF-RHF iter  12:  -267.94682804943409   -1.92008e-06   4.55388e-06 DIIS
   @DF-RHF iter  13:  -267.94682820066055   -1.51226e-07   8.59095e-07 DIIS

  ==> Post-Iterations <==

    Orbital Energies (a.u.)
    -----------------------

    Doubly Occupied:                                                      

       1A    -20.555693     2A    -20.551854     3A    -11.272108  
       4A    -11.270494     5A    -11.265822     6A     -1.385469  
       7A     -1.354551     8A     -1.017907     9A     -0.914811  
      10A     -0.837330    11A     -0.697850    12A     -0.677667  
      13A     -0.655901    14A     -0.631944    15A     -0.604510  
      16A     -0.555616    17A     -0.536150    18A     -0.499443  
      19A     -0.470982    20A     -0.434616    21A     -0.417632  

    Virtual:                                                              

      22A      0.220718    23A      0.251188    24A      0.282104  
      25A      0.301618    26A      0.316139    27A      0.320261  
      28A      0.331284    29A      0.336889    30A      0.349844  
      31A      0.422851    32A      0.439449    33A      0.446033  
      34A      0.726860    35A      0.758276    36A      0.772510  
      37A      0.812146    38A      0.823074    39A      0.837708  
      40A      0.884879    41A      0.935475    42A      0.991077  
      43A      1.055459    44A      1.098513    45A      1.106466  
      46A      1.148517    47A      1.156971    48A      1.165104  
      49A      1.187077    50A      1.206876    51A      1.233220  
      52A      1.255892    53A      1.311672    54A      1.315006  
      55A      1.380238    56A      1.407436    57A      1.445179  
      58A      1.609350    59A      1.675287    60A      1.685389  
      61A      1.757366    62A      1.785025    63A      1.826452  
      64A      1.949710    65A      1.988244    66A      2.040116  
      67A      2.119526    68A      2.221352    69A      2.246209  
      70A      2.390273    71A      2.411415    72A      2.446023  
      73A      2.475409    74A      2.485267    75A      2.522100  
      76A      2.600449    77A      2.625242    78A      2.726047  
      79A      2.753174    80A      2.806435    81A      2.896737  
      82A      2.909672    83A      3.058490    84A      3.175196  
      85A      3.210951    86A      3.344611    87A      4.169418  
      88A      4.370557    89A      4.639718    90A      4.680983  
      91A      4.871212  

    Final Occupation by Irrep:
              A 
    DOCC [    21 ]

  Energy converged.

  @DF-RHF Final Energy:  -267.94682820066055

   => Energetics <=

    Nuclear Repulsion Energy =            193.9989626273670069
    One-Electron Energy =                -750.6748117365808639
    Two-Electron Energy =                 288.7290209085527977
    DFT Exchange-Correlation Energy =       0.0000000000000000
    Empirical Dispersion Energy =           0.0000000000000000
    PCM Polarization Energy =               0.0000000000000000
    EFP Energy =                            0.0000000000000000
    Total Energy =                       -267.9468282006611162

    Alert: EFP and PCM quantities not currently incorporated into SCF psivars.

Properties will be evaluated at   0.000000,   0.000000,   0.000000 Bohr
  ==> Properties <==


Properties computed using the SCF density matrix

  Nuclear Dipole Moment: (a.u.)
     X:     3.9699      Y:    -0.5050      Z:    -1.4763

  Electronic Dipole Moment: (a.u.)
     X:    -3.1643      Y:     0.4871      Z:     0.5748

  Dipole Moment: (a.u.)
     X:     0.8056      Y:    -0.0179      Z:    -0.9014     Total:     1.2091

  Dipole Moment: (Debye)
     X:     2.0477      Y:    -0.0455      Z:    -2.2912     Total:     3.0732


  Saving occupied orbitals to File 180.

*** tstop() called on cx1-49-4-2.cx1.hpc.ic.ac.uk at Tue Jul  5 16:30:34 2016
Module time:
	user time   =       4.55 seconds =       0.08 minutes
	system time =       0.03 seconds =       0.00 minutes
	total time  =          5 seconds =       0.08 minutes
Total time:
	user time   =       4.55 seconds =       0.08 minutes
	system time =       0.03 seconds =       0.00 minutes
	total time  =          5 seconds =       0.08 minutes


Properties will be evaluated at   0.000000,   0.000000,   0.000000 Bohr

Properties computed using the  density matrix

  Nuclear Dipole Moment: (a.u.)
     X:     3.9699      Y:    -0.5050      Z:    -1.4763

  Electronic Dipole Moment: (a.u.)
     X:    -3.1643      Y:     0.4871      Z:     0.5748

  Dipole Moment: (a.u.)
     X:     0.8056      Y:    -0.0179      Z:    -0.9014     Total:     1.2091

  Dipole Moment: (Debye)
     X:     2.0477      Y:    -0.0455      Z:    -2.2912     Total:     3.0732

  Quadrupole Moment: (Debye Ang)
    XX:   -32.6849     YY:   -29.0055     ZZ:   -28.8344
    XY:    -0.2018     XZ:     3.5172     YZ:    -0.4427

  Traceless Quadrupole Moment: (Debye Ang)
    XX:    -2.5100     YY:     1.1695     ZZ:     1.3405
    XY:    -0.2018     XZ:     3.5172     YZ:    -0.4427

  Mulliken Charges: (a.u.)
   Center  Symbol    Alpha    Beta     Spin     Total
       1     H     0.28334  0.28334  0.00000  0.43333
       2     O     4.36128  4.36128  0.00000 -0.72256
       3     C     3.00327  3.00327  0.00000 -0.00654
       4     C     2.99851  2.99851  0.00000  0.00298
       5     H     0.43021  0.43021  0.00000  0.13958
       6     H     0.40871  0.40871  0.00000  0.18257
       7     O     4.29561  4.29561  0.00000 -0.59122
       8     H     0.43179  0.43179  0.00000  0.13643
       9     H     0.43663  0.43663  0.00000  0.12673
      10     C     3.07889  3.07889  0.00000 -0.15778
      11     H     0.43114  0.43114  0.00000  0.13772
      12     H     0.40996  0.40996  0.00000  0.18008
      13     H     0.43066  0.43066  0.00000  0.13869

   Total alpha = 21.00000, Total beta = 21.00000, Total charge =  0.00000


*** PSI4 exiting successfully. Buy a developer a beer!
