    -----------------------------------------------------------------------
          Psi4: An Open-Source Ab Initio Electronic Structure Package
                              Psi4 (no tag) Driver

                          Git: Rev {detached?}  

    J. M. Turney, A. C. Simmonett, R. M. Parrish, E. G. Hohenstein,
    F. A. Evangelista, J. T. Fermann, B. J. Mintz, L. A. Burns, J. J. Wilke,
    M. L. Abrams, N. J. Russ, M. L. Leininger, C. L. Janssen, E. T. Seidl,
    W. D. Allen, H. F. Schaefer, R. A. King, E. F. Valeev, C. D. Sherrill,
    and T. D. Crawford, WIREs Comput. Mol. Sci. 2, 556-565 (2012)
    (doi: 10.1002/wcms.93)

                         Additional Contributions by
    A. E. DePrince, M. Saitow, U. Bozkaya, A. Yu. Sokolov
    -----------------------------------------------------------------------


    Psi4 started on: Tue Jul  5 17:24:24 2016

    Process ID:  30700
    PSI4DATADIR: /export131/home/mjharvey/miniconda3/share
    Memory level set to 256.000 MB

  ==> Input File <==

--------------------------------------------------------------------------
set {
	reference rhf
	basis 6-31G*
}


set_num_threads( 1 )
memory 2 gb

molecule MOL {
0 1

O	 -0.644987	 -1.652990	 1.664992
C	 -1.514987	 -1.440192	 0.882411
C	 -2.775474	 -2.260464	 0.784449
O	 -1.481751	 -0.454642	 0.000584
H	 -3.283566	 -2.233162	 1.740984
H	 -3.433286	 -1.897333	 0.008654
H	 -2.505502	 -3.290827	 0.586090
C	 -0.334255	 0.388708	 0.000906
C	 0.891947	 -0.504646	 0.000751
H	 -0.365390	 1.025305	 -0.873475
H	 -0.365484	 1.024911	 0.875569
C	 0.838286	 -1.556101	 -1.109219
H	 0.972990	 -0.989855	 0.969484
H	 1.777328	 0.114301	 -0.115286
C	 0.957944	 -2.986846	 -0.581035
H	 -0.094692	 -1.455303	 -1.661014
H	 1.637529	 -1.370852	 -1.824742
C	 0.902992	 -4.037064	 -1.689587
H	 0.159795	 -3.173778	 0.133870
H	 1.890810	 -3.089989	 -0.031314
H	 -0.033874	 -3.981388	 -2.236576
H	 0.990040	 -5.040274	 -1.284336
H	 1.710321	 -3.897189	 -2.402796

	symmetry c1
}
set optking {
	frozen_dihedral = ("
		13 9 8 10,
		2 4 8 10,
		19 15 12 16,
		1 2 4 8
	")
}

ee = energy('scf')
oeprop('DIPOLE', 'QUADRUPOLE', 'MULLIKEN_CHARGES')
f=open( 'psi4out.xyz', 'w' )
f.write( "23  " )
f.write( str(ee) + "\n" )
f.write( MOL.save_string_xyz() )
f.close()
--------------------------------------------------------------------------

  Memory set to   2.000 GiB by Python script.

*** tstart() called on cx1-3-4-2.cx1.hpc.ic.ac.uk
*** at Tue Jul  5 17:24:24 2016


         ---------------------------------------------------------
                                   SCF
            by Justin Turney, Rob Parrish, and Andy Simmonett
                              RHF Reference
                        1 Threads,   2000 MiB Core
         ---------------------------------------------------------

  ==> Geometry <==

    Molecular point group: c1
    Full point group: C1

    Geometry (in Angstrom), charge = 0, multiplicity = 1:

       Center              X                  Y                   Z               Mass       
    ------------   -----------------  -----------------  -----------------  -----------------
           O         -0.280881370148    -0.031558852023     1.665436885152    15.994914619560
           C         -1.150881370148     0.181239147977     0.882855885152    12.000000000000
           C         -2.411368370148    -0.639032852023     0.784893885152    12.000000000000
           O         -1.117645370148     1.166789147977     0.001028885152    15.994914619560
           H         -2.919460370148    -0.611730852023     1.741428885152     1.007825032070
           H         -3.069180370148    -0.275901852023     0.009098885152     1.007825032070
           H         -2.141396370148    -1.669395852023     0.586534885152     1.007825032070
           C          0.029850629852     2.010139147977     0.001350885152    12.000000000000
           C          1.256052629852     1.116785147977     0.001195885152    12.000000000000
           H         -0.001284370148     2.646736147977    -0.873030114848     1.007825032070
           H         -0.001378370148     2.646342147977     0.876013885152     1.007825032070
           C          1.202391629852     0.065330147977    -1.108774114848    12.000000000000
           H          1.337095629852     0.631576147977     0.969928885152     1.007825032070
           H          2.141433629852     1.735732147977    -0.114841114848     1.007825032070
           C          1.322049629852    -1.365414852023    -0.580590114848    12.000000000000
           H          0.269413629852     0.166128147977    -1.660569114848     1.007825032070
           H          2.001634629852     0.250579147977    -1.824297114848     1.007825032070
           C          1.267097629852    -2.415632852023    -1.689142114848    12.000000000000
           H          0.523900629852    -1.552346852023     0.134314885152     1.007825032070
           H          2.254915629852    -1.468557852023    -0.030869114848     1.007825032070
           H          0.330231629852    -2.359956852023    -2.236131114848     1.007825032070
           H          1.354145629852    -3.418842852023    -1.283891114848     1.007825032070
           H          2.074426629852    -2.275757852023    -2.402351114848     1.007825032070

  Running in c1 symmetry.

  Rotational constants: A =      0.06837  B =      0.04102  C =      0.03128 [cm^-1]
  Rotational constants: A =   2049.63160  B =   1229.77496  C =    937.78969 [MHz]
  Nuclear repulsion =  498.127476937700919

  Charge       = 0
  Multiplicity = 1
  Electrons    = 72
  Nalpha       = 36
  Nbeta        = 36

  ==> Algorithm <==

  SCF Algorithm Type is DF.
  DIIS enabled.
  MOM disabled.
  Fractional occupation disabled.
  Guess Type is CORE.
  Energy threshold   = 1.00e-06
  Density threshold  = 1.00e-06
  Integral threshold = 0.00e+00

  ==> Primary Basis <==

  Basis Set: 6-31G*
    Number of shells: 82
    Number of basis function: 163
    Number of Cartesian functions: 163
    Spherical Harmonics?: false
    Max angular momentum: 2

  ==> Pre-Iterations <==

   -------------------------------------------------------
    Irrep   Nso     Nmo     Nalpha   Nbeta   Ndocc  Nsocc
   -------------------------------------------------------
     A        163     163       0       0       0       0
   -------------------------------------------------------
    Total     163     163      36      36      36       0
   -------------------------------------------------------

 OEINTS: Overlap, kinetic, potential, dipole, and quadrupole integrals
         stored in file 35.

  ==> Integral Setup <==

  ==> DFJK: Density-Fitted J/K Matrices <==

    J tasked:                  Yes
    K tasked:                  Yes
    wK tasked:                  No
    OpenMP threads:              1
    Integrals threads:           1
    Memory (MB):              1430
    Algorithm:                Core
    Integral Cache:           NONE
    Schwarz Cutoff:          1E-12
    Fitting Condition:       1E-12

   => Auxiliary Basis Set <=

  Basis Set: 
    Number of shells: 342
    Number of basis function: 1079
    Number of Cartesian functions: 1079
    Spherical Harmonics?: false
    Max angular momentum: 3

  Minimum eigenvalue in the overlap matrix is 3.2754769726E-03.
  Using Symmetric Orthogonalization.
  SCF Guess: Core (One-Electron) Hamiltonian.

  ==> Iterations <==

                           Total Energy        Delta E     RMS |[F,P]|

   @DF-RHF iter   1:  -294.41474739904100   -2.94415e+02   6.92030e-02 
   @DF-RHF iter   2:  -129.68553879824566    1.64729e+02   7.70930e-02 DIIS
   @DF-RHF iter   3:  -359.66710708626664   -2.29982e+02   3.89301e-02 DIIS
   @DF-RHF iter   4:  -224.80393747460454    1.34863e+02   7.77249e-02 DIIS
   @DF-RHF iter   5:  -363.15015716849490   -1.38346e+02   5.20076e-02 DIIS
   @DF-RHF iter   6:  -407.75551610644897   -4.46054e+01   2.53993e-02 DIIS
   @DF-RHF iter   7:  -422.54105738946106   -1.47855e+01   5.31914e-03 DIIS
   @DF-RHF iter   8:  -422.86948981556458   -3.28432e-01   2.72094e-03 DIIS
   @DF-RHF iter   9:  -422.94437496088352   -7.48851e-02   4.72043e-04 DIIS
   @DF-RHF iter  10:  -422.94795058220024   -3.57562e-03   2.12201e-04 DIIS
   @DF-RHF iter  11:  -422.94868153149429   -7.30949e-04   4.64149e-05 DIIS
   @DF-RHF iter  12:  -422.94876381459113   -8.22831e-05   1.64483e-05 DIIS
   @DF-RHF iter  13:  -422.94877342496085   -9.61037e-06   6.17441e-06 DIIS
   @DF-RHF iter  14:  -422.94877452334714   -1.09839e-06   2.53398e-06 DIIS
   @DF-RHF iter  15:  -422.94877471851606   -1.95169e-07   8.33803e-07 DIIS

  ==> Post-Iterations <==

    Orbital Energies (a.u.)
    -----------------------

    Doubly Occupied:                                                      

       1A    -20.606220     2A    -20.542871     3A    -11.380833  
       4A    -11.283397     5A    -11.236192     6A    -11.207779  
       7A    -11.205843     8A    -11.203419     9A    -11.200233  
      10A     -1.475967    11A     -1.368542    12A     -1.082901  
      13A     -1.039222    14A     -0.996618    15A     -0.930455  
      16A     -0.849686    17A     -0.794280    18A     -0.755096  
      19A     -0.700846    20A     -0.694978    21A     -0.672610  
      22A     -0.619693    23A     -0.607636    24A     -0.591278  
      25A     -0.576052    26A     -0.571189    27A     -0.557879  
      28A     -0.535067    29A     -0.532659    30A     -0.503728  
      31A     -0.492740    32A     -0.468075    33A     -0.460582  
      34A     -0.449069    35A     -0.439931    36A     -0.413768  

    Virtual:                                                              

      37A      0.186463    38A      0.224305    39A      0.257828  
      40A      0.264530    41A      0.289926    42A      0.294839  
      43A      0.301388    44A      0.309768    45A      0.317408  
      46A      0.324650    47A      0.330350    48A      0.332898  
      49A      0.355338    50A      0.368207    51A      0.373103  
      52A      0.394283    53A      0.406190    54A      0.425451  
      55A      0.448153    56A      0.462311    57A      0.483214  
      58A      0.531258    59A      0.583732    60A      0.711403  
      61A      0.716828    62A      0.732430    63A      0.749942  
      64A      0.757487    65A      0.768615    66A      0.787945  
      67A      0.794687    68A      0.837165    69A      0.842034  
      70A      0.876307    71A      0.903229    72A      0.942056  
      73A      0.950052    74A      0.964400    75A      0.968524  
      76A      0.981743    77A      1.015813    78A      1.050089  
      79A      1.083030    80A      1.100961    81A      1.111945  
      82A      1.125389    83A      1.135391    84A      1.143557  
      85A      1.174096    86A      1.179548    87A      1.192097  
      88A      1.195987    89A      1.201093    90A      1.207883  
      91A      1.223286    92A      1.234418    93A      1.253554  
      94A      1.271990    95A      1.283339    96A      1.296604  
      97A      1.338861    98A      1.367660    99A      1.407489  
     100A      1.456609   101A      1.463754   102A      1.500342  
     103A      1.567343   104A      1.621134   105A      1.644601  
     106A      1.687422   107A      1.720293   108A      1.756362  
     109A      1.777658   110A      1.805810   111A      1.874841  
     112A      1.913226   113A      1.966347   114A      1.988213  
     115A      2.014799   116A      2.060825   117A      2.080741  
     118A      2.160647   119A      2.174513   120A      2.195609  
     121A      2.235940   122A      2.242166   123A      2.261081  
     124A      2.284354   125A      2.306858   126A      2.314399  
     127A      2.341600   128A      2.358772   129A      2.405751  
     130A      2.426622   131A      2.463506   132A      2.532529  
     133A      2.555199   134A      2.576225   135A      2.581694  
     136A      2.638887   137A      2.665397   138A      2.703242  
     139A      2.714682   140A      2.741389   141A      2.765639  
     142A      2.779826   143A      2.801902   144A      2.820192  
     145A      2.939417   146A      2.947849   147A      3.028838  
     148A      3.071461   149A      3.118184   150A      3.148476  
     151A      3.178700   152A      3.373653   153A      3.419316  
     154A      3.555806   155A      4.481141   156A      4.550862  
     157A      4.592871   158A      4.649552   159A      4.717953  
     160A      4.789455   161A      4.873633   162A      4.971845  
     163A      5.046801  

    Final Occupation by Irrep:
              A 
    DOCC [    36 ]

  Energy converged.

  @DF-RHF Final Energy:  -422.94877471851606

   => Energetics <=

    Nuclear Repulsion Energy =            498.1274769377009193
    One-Electron Energy =               -1564.0574277108123624
    Two-Electron Energy =                 642.9811760545964034
    DFT Exchange-Correlation Energy =       0.0000000000000000
    Empirical Dispersion Energy =           0.0000000000000000
    PCM Polarization Energy =               0.0000000000000000
    EFP Energy =                            0.0000000000000000
    Total Energy =                       -422.9487747185149829

    Alert: EFP and PCM quantities not currently incorporated into SCF psivars.

Properties will be evaluated at   0.000000,   0.000000,   0.000000 Bohr
  ==> Properties <==


Properties computed using the SCF density matrix

  Nuclear Dipole Moment: (a.u.)
     X:     3.8880      Y:    -5.2026      Z:    -5.7187

  Electronic Dipole Moment: (a.u.)
     X:    -4.3120      Y:     5.4711      Z:     5.3463

  Dipole Moment: (a.u.)
     X:    -0.4240      Y:     0.2686      Z:    -0.3723     Total:     0.6249

  Dipole Moment: (Debye)
     X:    -1.0776      Y:     0.6827      Z:    -0.9464     Total:     1.5884


  Saving occupied orbitals to File 180.

*** tstop() called on cx1-3-4-2.cx1.hpc.ic.ac.uk at Tue Jul  5 17:24:51 2016
Module time:
	user time   =      26.09 seconds =       0.43 minutes
	system time =       0.26 seconds =       0.00 minutes
	total time  =         27 seconds =       0.45 minutes
Total time:
	user time   =      26.09 seconds =       0.43 minutes
	system time =       0.26 seconds =       0.00 minutes
	total time  =         27 seconds =       0.45 minutes


Properties will be evaluated at   0.000000,   0.000000,   0.000000 Bohr

Properties computed using the  density matrix

  Nuclear Dipole Moment: (a.u.)
     X:     3.8880      Y:    -5.2026      Z:    -5.7187

  Electronic Dipole Moment: (a.u.)
     X:    -4.3120      Y:     5.4711      Z:     5.3463

  Dipole Moment: (a.u.)
     X:    -0.4240      Y:     0.2686      Z:    -0.3723     Total:     0.6249

  Dipole Moment: (Debye)
     X:    -1.0776      Y:     0.6827      Z:    -0.9464     Total:     1.5884

  Quadrupole Moment: (Debye Ang)
    XX:   -53.3418     YY:   -54.0344     ZZ:   -61.2685
    XY:     2.6962     XZ:    -2.3032     YZ:     0.0585

  Traceless Quadrupole Moment: (Debye Ang)
    XX:     2.8731     YY:     2.1805     ZZ:    -5.0536
    XY:     2.6962     XZ:    -2.3032     YZ:     0.0585

  Mulliken Charges: (a.u.)
   Center  Symbol    Alpha    Beta     Spin     Total
       1     O     4.28769  4.28769  0.00000 -0.57537
       2     C     2.60552  2.60552  0.00000  0.78896
       3     C     3.28873  3.28873  0.00000 -0.57746
       4     O     4.31000  4.31000  0.00000 -0.62000
       5     H     0.39629  0.39629  0.00000  0.20742
       6     H     0.39796  0.39796  0.00000  0.20408
       7     H     0.39749  0.39749  0.00000  0.20503
       8     C     3.00821  3.00821  0.00000 -0.01642
       9     C     3.19744  3.19744  0.00000 -0.39488
      10     H     0.40708  0.40708  0.00000  0.18583
      11     H     0.40999  0.40999  0.00000  0.18002
      12     C     3.16535  3.16535  0.00000 -0.33070
      13     H     0.37035  0.37035  0.00000  0.25930
      14     H     0.42172  0.42172  0.00000  0.15656
      15     C     3.15755  3.15755  0.00000 -0.31509
      16     H     0.41618  0.41618  0.00000  0.16765
      17     H     0.42030  0.42030  0.00000  0.15941
      18     C     3.23947  3.23947  0.00000 -0.47894
      19     H     0.41271  0.41271  0.00000  0.17458
      20     H     0.42150  0.42150  0.00000  0.15701
      21     H     0.42514  0.42514  0.00000  0.14971
      22     H     0.42024  0.42024  0.00000  0.15951
      23     H     0.42310  0.42310  0.00000  0.15380

   Total alpha = 36.00000, Total beta = 36.00000, Total charge =  0.00000


*** PSI4 exiting successfully. Buy a developer a beer!
