    -----------------------------------------------------------------------
          Psi4: An Open-Source Ab Initio Electronic Structure Package
                              Psi4 (no tag) Driver

                          Git: Rev {detached?}  

    J. M. Turney, A. C. Simmonett, R. M. Parrish, E. G. Hohenstein,
    F. A. Evangelista, J. T. Fermann, B. J. Mintz, L. A. Burns, J. J. Wilke,
    M. L. Abrams, N. J. Russ, M. L. Leininger, C. L. Janssen, E. T. Seidl,
    W. D. Allen, H. F. Schaefer, R. A. King, E. F. Valeev, C. D. Sherrill,
    and T. D. Crawford, WIREs Comput. Mol. Sci. 2, 556-565 (2012)
    (doi: 10.1002/wcms.93)

                         Additional Contributions by
    A. E. DePrince, M. Saitow, U. Bozkaya, A. Yu. Sokolov
    -----------------------------------------------------------------------


    Psi4 started on: Tue Jul  5 16:25:37 2016

    Process ID:  30633
    PSI4DATADIR: /export131/home/mjharvey/miniconda3/share
    Memory level set to 256.000 MB

  ==> Input File <==

--------------------------------------------------------------------------
set {
	reference rhf
	basis 6-31G*
}


set_num_threads( 1 )
memory 2 gb

molecule MOL {
0 1

H	 1.459103	 0.593459	 -2.060296
O	 0.618456	 0.433426	 -1.656290
C	 0.702312	 0.627605	 -0.264544
C	 -0.714990	 0.596302	 0.266387
H	 1.153583	 1.589617	 -0.037075
H	 1.296925	 -0.154212	 0.203133
O	 -1.405996	 -0.526611	 -0.195820
H	 -1.257453	 1.468809	 -0.075599
H	 -0.688972	 0.618407	 1.353696
H	 -0.939345	 -1.296348	 0.103774

	symmetry c1
}
set optking {
	frozen_dihedral = ("
		5 3 4 7
	")
}

ee = energy('scf')
oeprop('DIPOLE', 'QUADRUPOLE', 'MULLIKEN_CHARGES')
f=open( 'psi4out.xyz', 'w' )
f.write( "10  " )
f.write( str(ee) + "\n" )
f.write( MOL.save_string_xyz() )
f.close()
--------------------------------------------------------------------------

  Memory set to   2.000 GiB by Python script.

*** tstart() called on cx1-49-4-2.cx1.hpc.ic.ac.uk
*** at Tue Jul  5 16:25:37 2016


         ---------------------------------------------------------
                                   SCF
            by Justin Turney, Rob Parrish, and Andy Simmonett
                              RHF Reference
                        1 Threads,   2000 MiB Core
         ---------------------------------------------------------

  ==> Geometry <==

    Molecular point group: c1
    Full point group: C1

    Geometry (in Angstrom), charge = 0, multiplicity = 1:

       Center              X                  Y                   Z               Mass       
    ------------   -----------------  -----------------  -----------------  -----------------
           H          1.647973514849     0.334931808204    -1.574800107398     1.007825032070
           O          0.807326514849     0.174898808204    -1.170794107398    15.994914619560
           C          0.891182514849     0.369077808204     0.220951892602    12.000000000000
           C         -0.526119485151     0.337774808204     0.751882892602    12.000000000000
           H          1.342453514849     1.331089808204     0.448420892602     1.007825032070
           H          1.485795514849    -0.412739191796     0.688628892602     1.007825032070
           O         -1.217125485151    -0.785138191796     0.289675892602    15.994914619560
           H         -1.068582485151     1.210281808204     0.409896892602     1.007825032070
           H         -0.500101485151     0.359879808204     1.839191892602     1.007825032070
           H         -0.750474485151    -1.554875191796     0.589269892602     1.007825032070

  Running in c1 symmetry.

  Rotational constants: A =      0.51248  B =      0.19418  C =      0.15880 [cm^-1]
  Rotational constants: A =  15363.85132  B =   5821.30805  C =   4760.71002 [MHz]
  Nuclear repulsion =  134.624963223507791

  Charge       = 0
  Multiplicity = 1
  Electrons    = 34
  Nalpha       = 17
  Nbeta        = 17

  ==> Algorithm <==

  SCF Algorithm Type is DF.
  DIIS enabled.
  MOM disabled.
  Fractional occupation disabled.
  Guess Type is CORE.
  Energy threshold   = 1.00e-06
  Density threshold  = 1.00e-06
  Integral threshold = 0.00e+00

  ==> Primary Basis <==

  Basis Set: 6-31G*
    Number of shells: 36
    Number of basis function: 72
    Number of Cartesian functions: 72
    Spherical Harmonics?: false
    Max angular momentum: 2

  ==> Pre-Iterations <==

   -------------------------------------------------------
    Irrep   Nso     Nmo     Nalpha   Nbeta   Ndocc  Nsocc
   -------------------------------------------------------
     A         72      72       0       0       0       0
   -------------------------------------------------------
    Total      72      72      17      17      17       0
   -------------------------------------------------------

 OEINTS: Overlap, kinetic, potential, dipole, and quadrupole integrals
         stored in file 35.

  ==> Integral Setup <==

  ==> DFJK: Density-Fitted J/K Matrices <==

    J tasked:                  Yes
    K tasked:                  Yes
    wK tasked:                  No
    OpenMP threads:              1
    Integrals threads:           1
    Memory (MB):              1430
    Algorithm:                Core
    Integral Cache:           NONE
    Schwarz Cutoff:          1E-12
    Fitting Condition:       1E-12

   => Auxiliary Basis Set <=

  Basis Set: 
    Number of shells: 150
    Number of basis function: 474
    Number of Cartesian functions: 474
    Spherical Harmonics?: false
    Max angular momentum: 3

  Minimum eigenvalue in the overlap matrix is 4.8284269802E-03.
  Using Symmetric Orthogonalization.
  SCF Guess: Core (One-Electron) Hamiltonian.

  ==> Iterations <==

                           Total Energy        Delta E     RMS |[F,P]|

   @DF-RHF iter   1:  -200.48140836115743   -2.00481e+02   8.43456e-02 
   @DF-RHF iter   2:  -190.85097247259029    9.63044e+00   7.75260e-02 DIIS
   @DF-RHF iter   3:  -223.67570989605991   -3.28247e+01   4.03234e-02 DIIS
   @DF-RHF iter   4:  -228.36392684651236   -4.68822e+00   1.43551e-02 DIIS
   @DF-RHF iter   5:  -228.85187914353565   -4.87952e-01   5.33268e-03 DIIS
   @DF-RHF iter   6:  -228.91131971177384   -5.94406e-02   1.30994e-03 DIIS
   @DF-RHF iter   7:  -228.91608085971319   -4.76115e-03   4.83936e-04 DIIS
   @DF-RHF iter   8:  -228.91675870474108   -6.77845e-04   1.15823e-04 DIIS
   @DF-RHF iter   9:  -228.91680547356276   -4.67688e-05   4.02659e-05 DIIS
   @DF-RHF iter  10:  -228.91681126597581   -5.79241e-06   1.07395e-05 DIIS
   @DF-RHF iter  11:  -228.91681172508839   -4.59113e-07   1.86057e-06 DIIS
   @DF-RHF iter  12:  -228.91681174431858   -1.92302e-08   6.31125e-07 DIIS

  ==> Post-Iterations <==

    Orbital Energies (a.u.)
    -----------------------

    Doubly Occupied:                                                      

       1A    -20.556308     2A    -20.550963     3A    -11.276037  
       4A    -11.269374     5A     -1.374727     6A     -1.348097  
       7A     -1.001549     8A     -0.843688     9A     -0.718266  
      10A     -0.675505    11A     -0.655462    12A     -0.593955  
      13A     -0.569829    14A     -0.535301    15A     -0.478465  
      16A     -0.447814    17A     -0.433566  

    Virtual:                                                              

      18A      0.213577    19A      0.250809    20A      0.278572  
      21A      0.297631    22A      0.312117    23A      0.347637  
      24A      0.384977    25A      0.423972    26A      0.436367  
      27A      0.752513    28A      0.808752    29A      0.811896  
      30A      0.825849    31A      0.903133    32A      0.911620  
      33A      1.062684    34A      1.086933    35A      1.120289  
      36A      1.136868    37A      1.163313    38A      1.191703  
      39A      1.210645    40A      1.238299    41A      1.290094  
      42A      1.296848    43A      1.319526    44A      1.395788  
      45A      1.447166    46A      1.657736    47A      1.698740  
      48A      1.742587    49A      1.819695    50A      1.871235  
      51A      1.991767    52A      2.003396    53A      2.096102  
      54A      2.155477    55A      2.238331    56A      2.378257  
      57A      2.427530    58A      2.467214    59A      2.480972  
      60A      2.634309    61A      2.724438    62A      2.747384  
      63A      2.793351    64A      2.841664    65A      2.920668  
      66A      3.042589    67A      3.180403    68A      3.245595  
      69A      4.127208    70A      4.224337    71A      4.629293  
      72A      4.855321  

    Final Occupation by Irrep:
              A 
    DOCC [    17 ]

  Energy converged.

  @DF-RHF Final Energy:  -228.91681174431858

   => Energetics <=

    Nuclear Repulsion Energy =            134.6249632235077911
    One-Electron Energy =                -580.4258628658247972
    Two-Electron Energy =                 216.8840878979982847
    DFT Exchange-Correlation Energy =       0.0000000000000000
    Empirical Dispersion Energy =           0.0000000000000000
    PCM Polarization Energy =               0.0000000000000000
    EFP Energy =                            0.0000000000000000
    Total Energy =                       -228.9168117443187214

    Alert: EFP and PCM quantities not currently incorporated into SCF psivars.

Properties will be evaluated at   0.000000,   0.000000,   0.000000 Bohr
  ==> Properties <==


Properties computed using the SCF density matrix

  Nuclear Dipole Moment: (a.u.)
     X:     2.0202      Y:     1.1863      Z:     2.2463

  Electronic Dipole Moment: (a.u.)
     X:    -0.8311      Y:    -1.0013      Z:    -1.5752

  Dipole Moment: (a.u.)
     X:     1.1891      Y:     0.1850      Z:     0.6710     Total:     1.3779

  Dipole Moment: (Debye)
     X:     3.0225      Y:     0.4703      Z:     1.7056     Total:     3.5022


  Saving occupied orbitals to File 180.

*** tstop() called on cx1-49-4-2.cx1.hpc.ic.ac.uk at Tue Jul  5 16:25:40 2016
Module time:
	user time   =       2.35 seconds =       0.04 minutes
	system time =       0.02 seconds =       0.00 minutes
	total time  =          3 seconds =       0.05 minutes
Total time:
	user time   =       2.35 seconds =       0.04 minutes
	system time =       0.02 seconds =       0.00 minutes
	total time  =          3 seconds =       0.05 minutes


Properties will be evaluated at   0.000000,   0.000000,   0.000000 Bohr

Properties computed using the  density matrix

  Nuclear Dipole Moment: (a.u.)
     X:     2.0202      Y:     1.1863      Z:     2.2463

  Electronic Dipole Moment: (a.u.)
     X:    -0.8311      Y:    -1.0013      Z:    -1.5752

  Dipole Moment: (a.u.)
     X:     1.1891      Y:     0.1850      Z:     0.6710     Total:     1.3779

  Dipole Moment: (Debye)
     X:     3.0225      Y:     0.4703      Z:     1.7056     Total:     3.5022

  Quadrupole Moment: (Debye Ang)
    XX:   -24.3387     YY:   -21.9162     ZZ:   -24.3247
    XY:    -0.4186     XZ:    -2.2962     YZ:    -1.4432

  Traceless Quadrupole Moment: (Debye Ang)
    XX:    -0.8122     YY:     1.6103     ZZ:    -0.7981
    XY:    -0.4186     XZ:    -2.2962     YZ:    -1.4432

  Mulliken Charges: (a.u.)
   Center  Symbol    Alpha    Beta     Spin     Total
       1     H     0.28081  0.28081  0.00000  0.43839
       2     O     4.36170  4.36170  0.00000 -0.72341
       3     C     3.01475  3.01475  0.00000 -0.02951
       4     C     2.99769  2.99769  0.00000  0.00461
       5     H     0.42820  0.42820  0.00000  0.14361
       6     H     0.43390  0.43390  0.00000  0.13219
       7     O     4.35784  4.35784  0.00000 -0.71568
       8     H     0.40993  0.40993  0.00000  0.18013
       9     H     0.43157  0.43157  0.00000  0.13686
      10     H     0.28360  0.28360  0.00000  0.43280

   Total alpha = 17.00000, Total beta = 17.00000, Total charge =  0.00000


*** PSI4 exiting successfully. Buy a developer a beer!
