    -----------------------------------------------------------------------
          Psi4: An Open-Source Ab Initio Electronic Structure Package
                              Psi4 (no tag) Driver

                          Git: Rev {detached?}  

    J. M. Turney, A. C. Simmonett, R. M. Parrish, E. G. Hohenstein,
    F. A. Evangelista, J. T. Fermann, B. J. Mintz, L. A. Burns, J. J. Wilke,
    M. L. Abrams, N. J. Russ, M. L. Leininger, C. L. Janssen, E. T. Seidl,
    W. D. Allen, H. F. Schaefer, R. A. King, E. F. Valeev, C. D. Sherrill,
    and T. D. Crawford, WIREs Comput. Mol. Sci. 2, 556-565 (2012)
    (doi: 10.1002/wcms.93)

                         Additional Contributions by
    A. E. DePrince, M. Saitow, U. Bozkaya, A. Yu. Sokolov
    -----------------------------------------------------------------------


    Psi4 started on: Tue Jul  5 16:37:50 2016

    Process ID:  12209
    PSI4DATADIR: /export131/home/mjharvey/miniconda3/share
    Memory level set to 256.000 MB

  ==> Input File <==

--------------------------------------------------------------------------
set {
	reference rhf
	basis 6-31G*
}


set_num_threads( 1 )
memory 2 gb

molecule MOL {
0 1

O	 0.391030	 1.298905	 0.000133
C	 0.503002	 0.111612	 0.000005
C	 -0.702327	 -0.811998	 -0.000075
C	 1.863306	 -0.554493	 0.000030
C	 -1.381894	 -0.928878	 -1.359001
H	 -0.375240	 -1.787863	 0.354146
H	 -1.400819	 -0.449513	 0.751908
H	 -0.695998	 -1.312994	 -2.104132
H	 -2.233180	 -1.598958	 -1.299318
H	 -1.730671	 0.037221	 -1.702843
H	 1.974395	 -1.189404	 -0.874166
H	 2.638695	 0.198920	 -0.000196
H	 1.974487	 -1.188655	 0.874727

	symmetry c1
}
ee = energy('scf')
oeprop('DIPOLE', 'QUADRUPOLE', 'MULLIKEN_CHARGES')
f=open( 'psi4out.xyz', 'w' )
f.write( "13  " )
f.write( str(ee) + "\n" )
f.write( MOL.save_string_xyz() )
f.close()
--------------------------------------------------------------------------

  Memory set to   2.000 GiB by Python script.

*** tstart() called on cx1-3-4-4.cx1.hpc.ic.ac.uk
*** at Tue Jul  5 16:37:51 2016


         ---------------------------------------------------------
                                   SCF
            by Justin Turney, Rob Parrish, and Andy Simmonett
                              RHF Reference
                        1 Threads,   2000 MiB Core
         ---------------------------------------------------------

  ==> Geometry <==

    Molecular point group: c1
    Full point group: C1

    Geometry (in Angstrom), charge = 0, multiplicity = 1:

       Center              X                  Y                   Z               Mass       
    ------------   -----------------  -----------------  -----------------  -----------------
           O          0.255133122411     1.476228762578     0.282373344448    15.994914619560
           C          0.367105122411     0.288935762578     0.282245344448    12.000000000000
           C         -0.838223877589    -0.634674237422     0.282165344448    12.000000000000
           C          1.727409122411    -0.377169237422     0.282270344448    12.000000000000
           C         -1.517790877589    -0.751554237422    -1.076760655552    12.000000000000
           H         -0.511136877589    -1.610539237422     0.636386344448     1.007825032070
           H         -1.536715877589    -0.272189237422     1.034148344448     1.007825032070
           H         -0.831894877589    -1.135670237422    -1.821891655552     1.007825032070
           H         -2.369076877589    -1.421634237422    -1.017077655552     1.007825032070
           H         -1.866567877589     0.214544762578    -1.420602655552     1.007825032070
           H          1.838498122411    -1.012080237422    -0.591925655552     1.007825032070
           H          2.502798122411     0.376243762578     0.282044344448     1.007825032070
           H          1.838590122411    -1.011331237422     1.156967344448     1.007825032070

  Running in c1 symmetry.

  Rotational constants: A =      0.26758  B =      0.12296  C =      0.09878 [cm^-1]
  Rotational constants: A =   8021.96781  B =   3686.35857  C =   2961.30443 [MHz]
  Nuclear repulsion =  176.633485811392831

  Charge       = 0
  Multiplicity = 1
  Electrons    = 40
  Nalpha       = 20
  Nbeta        = 20

  ==> Algorithm <==

  SCF Algorithm Type is DF.
  DIIS enabled.
  MOM disabled.
  Fractional occupation disabled.
  Guess Type is CORE.
  Energy threshold   = 1.00e-06
  Density threshold  = 1.00e-06
  Integral threshold = 0.00e+00

  ==> Primary Basis <==

  Basis Set: 6-31G*
    Number of shells: 46
    Number of basis function: 91
    Number of Cartesian functions: 91
    Spherical Harmonics?: false
    Max angular momentum: 2

  ==> Pre-Iterations <==

   -------------------------------------------------------
    Irrep   Nso     Nmo     Nalpha   Nbeta   Ndocc  Nsocc
   -------------------------------------------------------
     A         91      91       0       0       0       0
   -------------------------------------------------------
    Total      91      91      20      20      20       0
   -------------------------------------------------------

 OEINTS: Overlap, kinetic, potential, dipole, and quadrupole integrals
         stored in file 35.

  ==> Integral Setup <==

  ==> DFJK: Density-Fitted J/K Matrices <==

    J tasked:                  Yes
    K tasked:                  Yes
    wK tasked:                  No
    OpenMP threads:              1
    Integrals threads:           1
    Memory (MB):              1430
    Algorithm:                Core
    Integral Cache:           NONE
    Schwarz Cutoff:          1E-12
    Fitting Condition:       1E-12

   => Auxiliary Basis Set <=

  Basis Set: 
    Number of shells: 192
    Number of basis function: 605
    Number of Cartesian functions: 605
    Spherical Harmonics?: false
    Max angular momentum: 3

  Minimum eigenvalue in the overlap matrix is 4.0174849474E-03.
  Using Symmetric Orthogonalization.
  SCF Guess: Core (One-Electron) Hamiltonian.

  ==> Iterations <==

                           Total Energy        Delta E     RMS |[F,P]|

   @DF-RHF iter   1:  -180.77107500368052   -1.80771e+02   8.53361e-02 
   @DF-RHF iter   2:  -171.45382811797097    9.31725e+00   6.29100e-02 DIIS
   @DF-RHF iter   3:  -205.33500819541169   -3.38812e+01   5.67521e-02 DIIS
   @DF-RHF iter   4:  -229.59899677874526   -2.42640e+01   1.74262e-02 DIIS
   @DF-RHF iter   5:  -230.88151925373981   -1.28252e+00   4.70209e-03 DIIS
   @DF-RHF iter   6:  -230.97999408560278   -9.84748e-02   1.53447e-03 DIIS
   @DF-RHF iter   7:  -230.99195372679375   -1.19596e-02   7.65511e-04 DIIS
   @DF-RHF iter   8:  -230.99408639498446   -2.13267e-03   1.69825e-04 DIIS
   @DF-RHF iter   9:  -230.99439934952724   -3.12955e-04   1.03609e-04 DIIS
   @DF-RHF iter  10:  -230.99448955888963   -9.02094e-05   2.80344e-05 DIIS
   @DF-RHF iter  11:  -230.99450234234624   -1.27835e-05   1.03000e-05 DIIS
   @DF-RHF iter  12:  -230.99450424522294   -1.90288e-06   3.49425e-06 DIIS
   @DF-RHF iter  13:  -230.99450451239082   -2.67168e-07   1.60894e-06 DIIS
   @DF-RHF iter  14:  -230.99450458082427   -6.84335e-08   6.67467e-07 DIIS

  ==> Post-Iterations <==

    Orbital Energies (a.u.)
    -----------------------

    Doubly Occupied:                                                      

       1A    -20.549645     2A    -11.325977     3A    -11.233310  
       4A    -11.228540     5A    -11.227384     6A     -1.395062  
       7A     -1.066590     8A     -0.998300     9A     -0.884185  
      10A     -0.733229    11A     -0.653835    12A     -0.646155  
      13A     -0.608505    14A     -0.590751    15A     -0.570347  
      16A     -0.540340    17A     -0.528886    18A     -0.500000  
      19A     -0.480871    20A     -0.399607  

    Virtual:                                                              

      21A      0.164787    22A      0.224083    23A      0.267391  
      24A      0.289170    25A      0.298813    26A      0.309868  
      27A      0.319073    28A      0.332568    29A      0.349496  
      30A      0.386084    31A      0.418337    32A      0.482860  
      33A      0.501477    34A      0.708119    35A      0.732307  
      36A      0.749361    37A      0.761625    38A      0.790826  
      39A      0.825648    40A      0.882947    41A      0.911103  
      42A      0.970911    43A      0.991233    44A      0.997889  
      45A      1.059000    46A      1.090480    47A      1.106961  
      48A      1.143995    49A      1.148460    50A      1.171999  
      51A      1.197872    52A      1.198553    53A      1.233666  
      54A      1.248595    55A      1.267876    56A      1.340979  
      57A      1.368831    58A      1.436561    59A      1.494749  
      60A      1.673313    61A      1.719039    62A      1.777306  
      63A      1.891734    64A      1.975617    65A      2.007222  
      66A      2.084114    67A      2.109657    68A      2.141796  
      69A      2.191944    70A      2.239760    71A      2.281913  
      72A      2.295853    73A      2.391240    74A      2.470941  
      75A      2.507269    76A      2.602877    77A      2.633775  
      78A      2.660541    79A      2.701345    80A      2.750017  
      81A      2.838635    82A      2.944997    83A      3.034374  
      84A      3.097535    85A      3.371320    86A      3.375823  
      87A      4.440757    88A      4.524829    89A      4.641148  
      90A      4.817134    91A      4.957537  

    Final Occupation by Irrep:
              A 
    DOCC [    20 ]

  Energy converged.

  @DF-RHF Final Energy:  -230.99450458082427

   => Energetics <=

    Nuclear Repulsion Energy =            176.6334858113928306
    One-Electron Energy =                -662.9329355579708363
    Two-Electron Energy =                 255.3049451657536224
    DFT Exchange-Correlation Energy =       0.0000000000000000
    Empirical Dispersion Energy =           0.0000000000000000
    PCM Polarization Energy =               0.0000000000000000
    EFP Energy =                            0.0000000000000000
    Total Energy =                       -230.9945045808244117

    Alert: EFP and PCM quantities not currently incorporated into SCF psivars.

Properties will be evaluated at   0.000000,   0.000000,   0.000000 Bohr
  ==> Properties <==


Properties computed using the SCF density matrix

  Nuclear Dipole Moment: (a.u.)
     X:    -0.8758      Y:    -5.4983      Z:    -1.6317

  Electronic Dipole Moment: (a.u.)
     X:     0.9141      Y:     4.2975      Z:     1.5886

  Dipole Moment: (a.u.)
     X:     0.0383      Y:    -1.2009      Z:    -0.0431     Total:     1.2023

  Dipole Moment: (Debye)
     X:     0.0974      Y:    -3.0523      Z:    -0.1094     Total:     3.0558


  Saving occupied orbitals to File 180.

*** tstop() called on cx1-3-4-4.cx1.hpc.ic.ac.uk at Tue Jul  5 16:37:55 2016
Module time:
	user time   =       4.05 seconds =       0.07 minutes
	system time =       0.03 seconds =       0.00 minutes
	total time  =          4 seconds =       0.07 minutes
Total time:
	user time   =       4.05 seconds =       0.07 minutes
	system time =       0.03 seconds =       0.00 minutes
	total time  =          4 seconds =       0.07 minutes


Properties will be evaluated at   0.000000,   0.000000,   0.000000 Bohr

Properties computed using the  density matrix

  Nuclear Dipole Moment: (a.u.)
     X:    -0.8758      Y:    -5.4983      Z:    -1.6317

  Electronic Dipole Moment: (a.u.)
     X:     0.9141      Y:     4.2975      Z:     1.5886

  Dipole Moment: (a.u.)
     X:     0.0383      Y:    -1.2009      Z:    -0.0431     Total:     1.2023

  Dipole Moment: (Debye)
     X:     0.0974      Y:    -3.0523      Z:    -0.1094     Total:     3.0558

  Quadrupole Moment: (Debye Ang)
    XX:   -29.7275     YY:   -36.4611     ZZ:   -30.8276
    XY:    -0.6015     XZ:     0.1367     YZ:    -0.8713

  Traceless Quadrupole Moment: (Debye Ang)
    XX:     2.6113     YY:    -4.1224     ZZ:     1.5112
    XY:    -0.6015     XZ:     0.1367     YZ:    -0.8713

  Mulliken Charges: (a.u.)
   Center  Symbol    Alpha    Beta     Spin     Total
       1     O     4.25970  4.25970  0.00000 -0.51941
       2     C     2.73832  2.73832  0.00000  0.52336
       3     C     3.19968  3.19968  0.00000 -0.39936
       4     C     3.29036  3.29036  0.00000 -0.58072
       5     C     3.24424  3.24424  0.00000 -0.48848
       6     H     0.41762  0.41762  0.00000  0.16476
       7     H     0.40102  0.40102  0.00000  0.19796
       8     H     0.41824  0.41824  0.00000  0.16352
       9     H     0.41236  0.41236  0.00000  0.17528
      10     H     0.40461  0.40461  0.00000  0.19077
      11     H     0.40860  0.40860  0.00000  0.18280
      12     H     0.39715  0.39715  0.00000  0.20570
      13     H     0.40810  0.40810  0.00000  0.18380

   Total alpha = 20.00000, Total beta = 20.00000, Total charge =  0.00000


*** PSI4 exiting successfully. Buy a developer a beer!
