    -----------------------------------------------------------------------
          Psi4: An Open-Source Ab Initio Electronic Structure Package
                              Psi4 (no tag) Driver

                          Git: Rev {detached?}  

    J. M. Turney, A. C. Simmonett, R. M. Parrish, E. G. Hohenstein,
    F. A. Evangelista, J. T. Fermann, B. J. Mintz, L. A. Burns, J. J. Wilke,
    M. L. Abrams, N. J. Russ, M. L. Leininger, C. L. Janssen, E. T. Seidl,
    W. D. Allen, H. F. Schaefer, R. A. King, E. F. Valeev, C. D. Sherrill,
    and T. D. Crawford, WIREs Comput. Mol. Sci. 2, 556-565 (2012)
    (doi: 10.1002/wcms.93)

                         Additional Contributions by
    A. E. DePrince, M. Saitow, U. Bozkaya, A. Yu. Sokolov
    -----------------------------------------------------------------------


    Psi4 started on: Tue Jul  5 16:44:20 2016

    Process ID:  17958
    PSI4DATADIR: /export131/home/mjharvey/miniconda3/share
    Memory level set to 256.000 MB

  ==> Input File <==

--------------------------------------------------------------------------
set {
	reference rhf
	basis 6-31G*
}


set_num_threads( 1 )
memory 2 gb

molecule MOL {
0 1

H	 -1.630236	 -2.708429	 0.209073
C	 -1.346974	 -2.506484	 -0.831015
C	 -0.414791	 -1.338711	 -1.026665
O	 -1.770404	 -3.187671	 -1.707839
C	 -0.558097	 -0.297372	 0.091132
H	 -0.613686	 -0.904396	 -1.999440
H	 0.604049	 -1.724418	 -1.031735
C	 -1.850991	 0.512573	 -0.019058
H	 -0.527822	 -0.799848	 1.055173
H	 0.293577	 0.380148	 0.069309
C	 -3.096943	 -0.368295	 -0.099594
H	 -1.800724	 1.150330	 -0.898172
H	 -1.931651	 1.177355	 0.838044
H	 -3.060452	 -1.020287	 -0.967456
H	 -3.996858	 0.233488	 -0.175704
H	 -3.191959	 -0.995686	 0.782074

	symmetry c1
}
set optking {
	frozen_dihedral = ("
		9 5 8 12,
		6 3 5 9
	")
}

ee = energy('scf')
oeprop('DIPOLE', 'QUADRUPOLE', 'MULLIKEN_CHARGES')
f=open( 'psi4out.xyz', 'w' )
f.write( "16  " )
f.write( str(ee) + "\n" )
f.write( MOL.save_string_xyz() )
f.close()
--------------------------------------------------------------------------

  Memory set to   2.000 GiB by Python script.

*** tstart() called on cx1-1-3-3.cx1.hpc.ic.ac.uk
*** at Tue Jul  5 16:44:20 2016


         ---------------------------------------------------------
                                   SCF
            by Justin Turney, Rob Parrish, and Andy Simmonett
                              RHF Reference
                        1 Threads,   2000 MiB Core
         ---------------------------------------------------------

  ==> Geometry <==

    Molecular point group: c1
    Full point group: C1

    Geometry (in Angstrom), charge = 0, multiplicity = 1:

       Center              X                  Y                   Z               Mass       
    ------------   -----------------  -----------------  -----------------  -----------------
           H         -0.102339973874    -1.497615866677     0.814076347665     1.007825032070
           C          0.180922026126    -1.295670866677    -0.226011652335    12.000000000000
           C          1.113105026126    -0.127897866677    -0.421661652335    12.000000000000
           O         -0.242507973874    -1.976857866677    -1.102835652335    15.994914619560
           C          0.969799026126     0.913441133323     0.696135347665    12.000000000000
           H          0.914210026126     0.306417133323    -1.394436652335     1.007825032070
           H          2.131945026126    -0.513604866677    -0.426731652335     1.007825032070
           C         -0.323094973874     1.723386133323     0.585945347665    12.000000000000
           H          1.000074026126     0.410965133323     1.660176347665     1.007825032070
           H          1.821473026126     1.590961133323     0.674312347665     1.007825032070
           C         -1.569046973874     0.842518133323     0.505409347665    12.000000000000
           H         -0.272827973874     2.361143133323    -0.293168652335     1.007825032070
           H         -0.403754973874     2.388168133323     1.443047347665     1.007825032070
           H         -1.532555973874     0.190526133323    -0.362452652335     1.007825032070
           H         -2.468961973874     1.444301133323     0.429299347665     1.007825032070
           H         -1.664062973874     0.215127133323     1.387077347665     1.007825032070

  Running in c1 symmetry.

  Rotational constants: A =      0.18498  B =      0.08288  C =      0.06292 [cm^-1]
  Rotational constants: A =   5545.58328  B =   2484.79154  C =   1886.39342 [MHz]
  Nuclear repulsion =  242.606258122487731

  Charge       = 0
  Multiplicity = 1
  Electrons    = 48
  Nalpha       = 24
  Nbeta        = 24

  ==> Algorithm <==

  SCF Algorithm Type is DF.
  DIIS enabled.
  MOM disabled.
  Fractional occupation disabled.
  Guess Type is CORE.
  Energy threshold   = 1.00e-06
  Density threshold  = 1.00e-06
  Integral threshold = 0.00e+00

  ==> Primary Basis <==

  Basis Set: 6-31G*
    Number of shells: 56
    Number of basis function: 110
    Number of Cartesian functions: 110
    Spherical Harmonics?: false
    Max angular momentum: 2

  ==> Pre-Iterations <==

   -------------------------------------------------------
    Irrep   Nso     Nmo     Nalpha   Nbeta   Ndocc  Nsocc
   -------------------------------------------------------
     A        110     110       0       0       0       0
   -------------------------------------------------------
    Total     110     110      24      24      24       0
   -------------------------------------------------------

 OEINTS: Overlap, kinetic, potential, dipole, and quadrupole integrals
         stored in file 35.

  ==> Integral Setup <==

  ==> DFJK: Density-Fitted J/K Matrices <==

    J tasked:                  Yes
    K tasked:                  Yes
    wK tasked:                  No
    OpenMP threads:              1
    Integrals threads:           1
    Memory (MB):              1430
    Algorithm:                Core
    Integral Cache:           NONE
    Schwarz Cutoff:          1E-12
    Fitting Condition:       1E-12

   => Auxiliary Basis Set <=

  Basis Set: 
    Number of shells: 234
    Number of basis function: 736
    Number of Cartesian functions: 736
    Spherical Harmonics?: false
    Max angular momentum: 3

  Minimum eigenvalue in the overlap matrix is 3.6787215311E-03.
  Using Symmetric Orthogonalization.
  SCF Guess: Core (One-Electron) Hamiltonian.

  ==> Iterations <==

                           Total Energy        Delta E     RMS |[F,P]|

   @DF-RHF iter   1:  -212.87433063918334   -2.12874e+02   7.08492e-02 
   @DF-RHF iter   2:  -166.66724885052142    4.62071e+01   6.76684e-02 DIIS
   @DF-RHF iter   3:  -232.82920198402152   -6.61620e+01   4.08399e-02 DIIS
   @DF-RHF iter   4:  -221.34196679666920    1.14872e+01   6.47895e-02 DIIS
   @DF-RHF iter   5:  -266.49664107701813   -4.51547e+01   2.13752e-02 DIIS
   @DF-RHF iter   6:  -269.60321801033240   -3.10658e+00   7.78312e-03 DIIS
   @DF-RHF iter   7:  -269.89231679771103   -2.89099e-01   4.44388e-03 DIIS
   @DF-RHF iter   8:  -270.00076114013916   -1.08444e-01   1.04490e-03 DIIS
   @DF-RHF iter   9:  -270.00999406207666   -9.23292e-03   3.96502e-04 DIIS
   @DF-RHF iter  10:  -270.01135620995331   -1.36215e-03   1.09339e-04 DIIS
   @DF-RHF iter  11:  -270.01148703265801   -1.30823e-04   2.34247e-05 DIIS
   @DF-RHF iter  12:  -270.01149478581920   -7.75316e-06   6.72641e-06 DIIS
   @DF-RHF iter  13:  -270.01149544664952   -6.60830e-07   2.90685e-06 DIIS
   @DF-RHF iter  14:  -270.01149562246212   -1.75813e-07   1.13132e-06 DIIS
   @DF-RHF iter  15:  -270.01149566848869   -4.60266e-08   4.87586e-07 DIIS

  ==> Post-Iterations <==

    Orbital Energies (a.u.)
    -----------------------

    Doubly Occupied:                                                      

       1A    -20.558044     2A    -11.326481     3A    -11.235764  
       4A    -11.234223     5A    -11.227885     6A    -11.217495  
       7A     -1.400802     8A     -1.101526     9A     -1.010415  
      10A     -0.918393    11A     -0.806854    12A     -0.794577  
      13A     -0.656770    14A     -0.655275    15A     -0.648488  
      16A     -0.600669    17A     -0.576485    18A     -0.554535  
      19A     -0.537097    20A     -0.516580    21A     -0.486834  
      22A     -0.479686    23A     -0.461947    24A     -0.408719  

    Virtual:                                                              

      25A      0.160454    26A      0.223331    27A      0.246667  
      28A      0.276990    29A      0.282701    30A      0.301399  
      31A      0.306531    32A      0.328565    33A      0.333747  
      34A      0.345596    35A      0.357705    36A      0.391396  
      37A      0.401014    38A      0.450170    39A      0.478471  
      40A      0.503889    41A      0.704011    42A      0.716927  
      43A      0.729442    44A      0.753161    45A      0.768524  
      46A      0.796167    47A      0.847736    48A      0.905159  
      49A      0.931884    50A      0.945728    51A      0.977225  
      52A      0.990563    53A      1.034745    54A      1.063667  
      55A      1.093339    56A      1.130832    57A      1.136956  
      58A      1.140299    59A      1.151902    60A      1.164515  
      61A      1.179729    62A      1.205004    63A      1.218705  
      64A      1.230262    65A      1.241675    66A      1.253551  
      67A      1.285912    68A      1.361866    69A      1.372765  
      70A      1.447623    71A      1.600230    72A      1.676364  
      73A      1.707367    74A      1.790786    75A      1.827135  
      76A      1.843040    77A      1.906959    78A      1.974612  
      79A      2.042612    80A      2.045639    81A      2.127186  
      82A      2.143773    83A      2.172422    84A      2.247065  
      85A      2.267202    86A      2.285314    87A      2.322218  
      88A      2.374306    89A      2.436261    90A      2.486828  
      91A      2.556942    92A      2.610144    93A      2.664065  
      94A      2.676699    95A      2.689264    96A      2.766124  
      97A      2.783440    98A      2.885637    99A      2.945610  
     100A      2.985169   101A      3.011178   102A      3.066331  
     103A      3.281489   104A      3.384665   105A      4.369640  
     106A      4.540091   107A      4.633469   108A      4.738226  
     109A      4.922443   110A      4.951028  

    Final Occupation by Irrep:
              A 
    DOCC [    24 ]

  Energy converged.

  @DF-RHF Final Energy:  -270.01149566848869

   => Energetics <=

    Nuclear Repulsion Energy =            242.6062581224877306
    One-Electron Energy =                -846.4043542376061851
    Two-Electron Energy =                 333.7866004466291656
    DFT Exchange-Correlation Energy =       0.0000000000000000
    Empirical Dispersion Energy =           0.0000000000000000
    PCM Polarization Energy =               0.0000000000000000
    EFP Energy =                            0.0000000000000000
    Total Energy =                       -270.0114956684893173

    Alert: EFP and PCM quantities not currently incorporated into SCF psivars.

Properties will be evaluated at   0.000000,   0.000000,   0.000000 Bohr
  ==> Properties <==


Properties computed using the SCF density matrix

  Nuclear Dipole Moment: (a.u.)
     X:    -0.5419      Y:     6.4557      Z:     3.6801

  Electronic Dipole Moment: (a.u.)
     X:     1.0214      Y:    -5.5919      Z:    -2.9225

  Dipole Moment: (a.u.)
     X:     0.4795      Y:     0.8637      Z:     0.7576     Total:     1.2449

  Dipole Moment: (Debye)
     X:     1.2187      Y:     2.1953      Z:     1.9255     Total:     3.1642


  Saving occupied orbitals to File 180.

*** tstop() called on cx1-1-3-3.cx1.hpc.ic.ac.uk at Tue Jul  5 16:44:30 2016
Module time:
	user time   =       9.76 seconds =       0.16 minutes
	system time =       0.06 seconds =       0.00 minutes
	total time  =         10 seconds =       0.17 minutes
Total time:
	user time   =       9.76 seconds =       0.16 minutes
	system time =       0.06 seconds =       0.00 minutes
	total time  =         10 seconds =       0.17 minutes


Properties will be evaluated at   0.000000,   0.000000,   0.000000 Bohr

Properties computed using the  density matrix

  Nuclear Dipole Moment: (a.u.)
     X:    -0.5419      Y:     6.4557      Z:     3.6801

  Electronic Dipole Moment: (a.u.)
     X:     1.0214      Y:    -5.5919      Z:    -2.9225

  Dipole Moment: (a.u.)
     X:     0.4795      Y:     0.8637      Z:     0.7576     Total:     1.2449

  Dipole Moment: (Debye)
     X:     1.2187      Y:     2.1953      Z:     1.9255     Total:     3.1642

  Quadrupole Moment: (Debye Ang)
    XX:   -37.4424     YY:   -43.6584     ZZ:   -40.5246
    XY:    -2.0056     XZ:    -0.9265     YZ:    -4.6954

  Traceless Quadrupole Moment: (Debye Ang)
    XX:     3.0994     YY:    -3.1166     ZZ:     0.0172
    XY:    -2.0056     XZ:    -0.9265     YZ:    -4.6954

  Mulliken Charges: (a.u.)
   Center  Symbol    Alpha    Beta     Spin     Total
       1     H     0.42862  0.42862  0.00000  0.14276
       2     C     2.83417  2.83417  0.00000  0.33167
       3     C     3.20715  3.20715  0.00000 -0.41430
       4     O     4.24498  4.24498  0.00000 -0.48996
       5     C     3.16930  3.16930  0.00000 -0.33860
       6     H     0.39841  0.39841  0.00000  0.20317
       7     H     0.39920  0.39920  0.00000  0.20160
       8     C     3.15025  3.15025  0.00000 -0.30049
       9     H     0.41949  0.41949  0.00000  0.16102
      10     H     0.41208  0.41208  0.00000  0.17585
      11     C     3.26165  3.26165  0.00000 -0.52330
      12     H     0.41866  0.41866  0.00000  0.16268
      13     H     0.41703  0.41703  0.00000  0.16594
      14     H     0.40723  0.40723  0.00000  0.18555
      15     H     0.41164  0.41164  0.00000  0.17671
      16     H     0.42015  0.42015  0.00000  0.15970

   Total alpha = 24.00000, Total beta = 24.00000, Total charge =  0.00000


*** PSI4 exiting successfully. Buy a developer a beer!
