    -----------------------------------------------------------------------
          Psi4: An Open-Source Ab Initio Electronic Structure Package
                              Psi4 (no tag) Driver

                          Git: Rev {detached?}  

    J. M. Turney, A. C. Simmonett, R. M. Parrish, E. G. Hohenstein,
    F. A. Evangelista, J. T. Fermann, B. J. Mintz, L. A. Burns, J. J. Wilke,
    M. L. Abrams, N. J. Russ, M. L. Leininger, C. L. Janssen, E. T. Seidl,
    W. D. Allen, H. F. Schaefer, R. A. King, E. F. Valeev, C. D. Sherrill,
    and T. D. Crawford, WIREs Comput. Mol. Sci. 2, 556-565 (2012)
    (doi: 10.1002/wcms.93)

                         Additional Contributions by
    A. E. DePrince, M. Saitow, U. Bozkaya, A. Yu. Sokolov
    -----------------------------------------------------------------------


    Psi4 started on: Tue Jul  5 16:24:23 2016

    Process ID:  27862
    PSI4DATADIR: /export131/home/mjharvey/miniconda3/share
    Memory level set to 256.000 MB

  ==> Input File <==

--------------------------------------------------------------------------
set {
	reference rhf
	basis 6-31G*
}


set_num_threads( 1 )
memory 2 gb

molecule MOL {
0 1

H	 1.459103	 0.593459	 -2.060296
O	 0.618456	 0.433426	 -1.656290
C	 0.702312	 0.627605	 -0.264544
C	 -0.714990	 0.596302	 0.266387
H	 1.153583	 1.589617	 -0.037075
H	 1.296925	 -0.154212	 0.203133
O	 -1.405996	 -0.526611	 -0.195820
H	 -1.257453	 1.468809	 -0.075599
H	 -0.688972	 0.618407	 1.353696
H	 -2.290948	 -0.255547	 -0.404143

	symmetry c1
}
set optking {
	frozen_dihedral = ("
		5 3 4 7
	")
}

ee = energy('scf')
oeprop('DIPOLE', 'QUADRUPOLE', 'MULLIKEN_CHARGES')
f=open( 'psi4out.xyz', 'w' )
f.write( "10  " )
f.write( str(ee) + "\n" )
f.write( MOL.save_string_xyz() )
f.close()
--------------------------------------------------------------------------

  Memory set to   2.000 GiB by Python script.

*** tstart() called on cx1-49-4-2.cx1.hpc.ic.ac.uk
*** at Tue Jul  5 16:24:24 2016


         ---------------------------------------------------------
                                   SCF
            by Justin Turney, Rob Parrish, and Andy Simmonett
                              RHF Reference
                        1 Threads,   2000 MiB Core
         ---------------------------------------------------------

  ==> Geometry <==

    Molecular point group: c1
    Full point group: C1

    Geometry (in Angstrom), charge = 0, multiplicity = 1:

       Center              X                  Y                   Z               Mass       
    ------------   -----------------  -----------------  -----------------  -----------------
           H          1.669931123695     0.318023365973    -1.566548688297     1.007825032070
           O          0.829284123695     0.157990365973    -1.162542688297    15.994914619560
           C          0.913140123695     0.352169365973     0.229203311703    12.000000000000
           C         -0.504161876305     0.320866365973     0.760134311703    12.000000000000
           H          1.364411123695     1.314181365973     0.456672311703     1.007825032070
           H          1.507753123695    -0.429647634027     0.696880311703     1.007825032070
           O         -1.195167876305    -0.802046634027     0.297927311703    15.994914619560
           H         -1.046624876305     1.193373365973     0.418148311703     1.007825032070
           H         -0.478143876305     0.342971365973     1.847443311703     1.007825032070
           H         -2.080119876305    -0.530982634027     0.089604311703     1.007825032070

  Running in c1 symmetry.

  Rotational constants: A =      0.51985  B =      0.19203  C =      0.15567 [cm^-1]
  Rotational constants: A =  15584.82620  B =   5756.77757  C =   4666.89931 [MHz]
  Nuclear repulsion =  134.209594002233246

  Charge       = 0
  Multiplicity = 1
  Electrons    = 34
  Nalpha       = 17
  Nbeta        = 17

  ==> Algorithm <==

  SCF Algorithm Type is DF.
  DIIS enabled.
  MOM disabled.
  Fractional occupation disabled.
  Guess Type is CORE.
  Energy threshold   = 1.00e-06
  Density threshold  = 1.00e-06
  Integral threshold = 0.00e+00

  ==> Primary Basis <==

  Basis Set: 6-31G*
    Number of shells: 36
    Number of basis function: 72
    Number of Cartesian functions: 72
    Spherical Harmonics?: false
    Max angular momentum: 2

  ==> Pre-Iterations <==

   -------------------------------------------------------
    Irrep   Nso     Nmo     Nalpha   Nbeta   Ndocc  Nsocc
   -------------------------------------------------------
     A         72      72       0       0       0       0
   -------------------------------------------------------
    Total      72      72      17      17      17       0
   -------------------------------------------------------

 OEINTS: Overlap, kinetic, potential, dipole, and quadrupole integrals
         stored in file 35.

  ==> Integral Setup <==

  ==> DFJK: Density-Fitted J/K Matrices <==

    J tasked:                  Yes
    K tasked:                  Yes
    wK tasked:                  No
    OpenMP threads:              1
    Integrals threads:           1
    Memory (MB):              1430
    Algorithm:                Core
    Integral Cache:           NONE
    Schwarz Cutoff:          1E-12
    Fitting Condition:       1E-12

   => Auxiliary Basis Set <=

  Basis Set: 
    Number of shells: 150
    Number of basis function: 474
    Number of Cartesian functions: 474
    Spherical Harmonics?: false
    Max angular momentum: 3

  Minimum eigenvalue in the overlap matrix is 4.7348058005E-03.
  Using Symmetric Orthogonalization.
  SCF Guess: Core (One-Electron) Hamiltonian.

  ==> Iterations <==

                           Total Energy        Delta E     RMS |[F,P]|

   @DF-RHF iter   1:  -200.32881232750015   -2.00329e+02   8.44756e-02 
   @DF-RHF iter   2:  -191.03673916953426    9.29207e+00   7.66858e-02 DIIS
   @DF-RHF iter   3:  -223.28685044329950   -3.22501e+01   4.08059e-02 DIIS
   @DF-RHF iter   4:  -228.29767757807844   -5.01083e+00   1.52393e-02 DIIS
   @DF-RHF iter   5:  -228.85303016760895   -5.55353e-01   5.08494e-03 DIIS
   @DF-RHF iter   6:  -228.90946097195302   -5.64308e-02   1.29825e-03 DIIS
   @DF-RHF iter   7:  -228.91417938916442   -4.71842e-03   5.03387e-04 DIIS
   @DF-RHF iter   8:  -228.91490460791061   -7.25219e-04   1.28312e-04 DIIS
   @DF-RHF iter   9:  -228.91495967015942   -5.50622e-05   3.73267e-05 DIIS
   @DF-RHF iter  10:  -228.91496498083615   -5.31068e-06   1.06263e-05 DIIS
   @DF-RHF iter  11:  -228.91496542198303   -4.41147e-07   1.91256e-06 DIIS
   @DF-RHF iter  12:  -228.91496544209417   -2.01111e-08   5.38360e-07 DIIS

  ==> Post-Iterations <==

    Orbital Energies (a.u.)
    -----------------------

    Doubly Occupied:                                                      

       1A    -20.550901     2A    -20.548262     3A    -11.271333  
       4A    -11.269273     5A     -1.370028     6A     -1.345400  
       7A     -0.999937     8A     -0.831045     9A     -0.714974  
      10A     -0.700952    11A     -0.616305    12A     -0.597299  
      13A     -0.587212    14A     -0.514779    15A     -0.482438  
      16A     -0.437431    17A     -0.433753  

    Virtual:                                                              

      18A      0.216073    19A      0.241958    20A      0.276568  
      21A      0.313227    22A      0.323269    23A      0.354287  
      24A      0.390676    25A      0.418914    26A      0.438435  
      27A      0.752509    28A      0.805114    29A      0.814057  
      30A      0.827637    31A      0.911982    32A      0.928033  
      33A      1.057502    34A      1.112521    35A      1.119308  
      36A      1.130662    37A      1.150702    38A      1.190393  
      39A      1.210821    40A      1.265679    41A      1.286573  
      42A      1.298768    43A      1.315459    44A      1.426022  
      45A      1.474427    46A      1.590387    47A      1.681751  
      48A      1.752032    49A      1.815682    50A      1.879095  
      51A      1.991671    52A      2.025903    53A      2.097184  
      54A      2.162570    55A      2.254565    56A      2.371977  
      57A      2.433872    58A      2.468172    59A      2.503336  
      60A      2.644902    61A      2.717114    62A      2.739944  
      63A      2.789685    64A      2.866820    65A      2.944915  
      66A      3.045691    67A      3.172563    68A      3.258561  
      69A      4.131718    70A      4.221568    71A      4.633641  
      72A      4.860837  

    Final Occupation by Irrep:
              A 
    DOCC [    17 ]

  Energy converged.

  @DF-RHF Final Energy:  -228.91496544209417

   => Energetics <=

    Nuclear Repulsion Energy =            134.2095940022332456
    One-Electron Energy =                -579.7065928049439663
    Two-Electron Energy =                 216.5820333606167196
    DFT Exchange-Correlation Energy =       0.0000000000000000
    Empirical Dispersion Energy =           0.0000000000000000
    PCM Polarization Energy =               0.0000000000000000
    EFP Energy =                            0.0000000000000000
    Total Energy =                       -228.9149654420940010

    Alert: EFP and PCM quantities not currently incorporated into SCF psivars.

Properties will be evaluated at   0.000000,   0.000000,   0.000000 Bohr
  ==> Properties <==


Properties computed using the SCF density matrix

  Nuclear Dipole Moment: (a.u.)
     X:     0.8768      Y:     2.0668      Z:     1.8166

  Electronic Dipole Moment: (a.u.)
     X:    -0.5984      Y:    -1.2182      Z:    -1.4869

  Dipole Moment: (a.u.)
     X:     0.2784      Y:     0.8485      Z:     0.3297     Total:     0.9520

  Dipole Moment: (Debye)
     X:     0.7077      Y:     2.1568      Z:     0.8381     Total:     2.4197


  Saving occupied orbitals to File 180.

*** tstop() called on cx1-49-4-2.cx1.hpc.ic.ac.uk at Tue Jul  5 16:24:26 2016
Module time:
	user time   =       2.29 seconds =       0.04 minutes
	system time =       0.03 seconds =       0.00 minutes
	total time  =          2 seconds =       0.03 minutes
Total time:
	user time   =       2.29 seconds =       0.04 minutes
	system time =       0.03 seconds =       0.00 minutes
	total time  =          2 seconds =       0.03 minutes


Properties will be evaluated at   0.000000,   0.000000,   0.000000 Bohr

Properties computed using the  density matrix

  Nuclear Dipole Moment: (a.u.)
     X:     0.8768      Y:     2.0668      Z:     1.8166

  Electronic Dipole Moment: (a.u.)
     X:    -0.5984      Y:    -1.2182      Z:    -1.4869

  Dipole Moment: (a.u.)
     X:     0.2784      Y:     0.8485      Z:     0.3297     Total:     0.9520

  Dipole Moment: (Debye)
     X:     0.7077      Y:     2.1568      Z:     0.8381     Total:     2.4197

  Quadrupole Moment: (Debye Ang)
    XX:   -16.4726     YY:   -26.7820     ZZ:   -24.8950
    XY:    -0.3381     XZ:    -1.5213     YZ:     0.2401

  Traceless Quadrupole Moment: (Debye Ang)
    XX:     6.2439     YY:    -4.0654     ZZ:    -2.1785
    XY:    -0.3381     XZ:    -1.5213     YZ:     0.2401

  Mulliken Charges: (a.u.)
   Center  Symbol    Alpha    Beta     Spin     Total
       1     H     0.28145  0.28145  0.00000  0.43709
       2     O     4.36464  4.36464  0.00000 -0.72928
       3     C     3.00260  3.00260  0.00000 -0.00521
       4     C     2.99855  2.99855  0.00000  0.00290
       5     H     0.43078  0.43078  0.00000  0.13844
       6     H     0.42360  0.42360  0.00000  0.15281
       7     O     4.36265  4.36265  0.00000 -0.72530
       8     H     0.42870  0.42870  0.00000  0.14259
       9     H     0.42879  0.42879  0.00000  0.14242
      10     H     0.27823  0.27823  0.00000  0.44354

   Total alpha = 17.00000, Total beta = 17.00000, Total charge =  0.00000


*** PSI4 exiting successfully. Buy a developer a beer!
