    -----------------------------------------------------------------------
          Psi4: An Open-Source Ab Initio Electronic Structure Package
                              Psi4 (no tag) Driver

                          Git: Rev {detached?}  

    J. M. Turney, A. C. Simmonett, R. M. Parrish, E. G. Hohenstein,
    F. A. Evangelista, J. T. Fermann, B. J. Mintz, L. A. Burns, J. J. Wilke,
    M. L. Abrams, N. J. Russ, M. L. Leininger, C. L. Janssen, E. T. Seidl,
    W. D. Allen, H. F. Schaefer, R. A. King, E. F. Valeev, C. D. Sherrill,
    and T. D. Crawford, WIREs Comput. Mol. Sci. 2, 556-565 (2012)
    (doi: 10.1002/wcms.93)

                         Additional Contributions by
    A. E. DePrince, M. Saitow, U. Bozkaya, A. Yu. Sokolov
    -----------------------------------------------------------------------


    Psi4 started on: Tue Jul  5 16:33:45 2016

    Process ID:  22787
    PSI4DATADIR: /export131/home/mjharvey/miniconda3/share
    Memory level set to 256.000 MB

  ==> Input File <==

--------------------------------------------------------------------------
set {
	reference rhf
	basis 6-31G*
}


set_num_threads( 1 )
memory 2 gb

molecule MOL {
0 1

H	 3.729471	 -0.928294	 -0.070608
O	 2.826016	 -1.159218	 0.122261
C	 2.077727	 -0.067559	 -0.035091
C	 0.624473	 -0.343591	 0.253101
O	 2.542965	 0.974826	 -0.363729
C	 -0.265902	 0.883932	 0.072916
H	 0.324016	 -1.163849	 -0.390541
H	 0.565024	 -0.726111	 1.268924
C	 -1.728698	 0.646073	 0.462102
H	 -0.209144	 1.219470	 -0.958188
H	 0.135059	 1.692851	 0.673903
C	 -2.482460	 -0.343073	 -0.431425
H	 -2.245265	 1.602650	 0.432430
H	 -1.779332	 0.308348	 1.496285
C	 -1.823257	 -1.721704	 -0.467561
H	 -3.505300	 -0.441361	 -0.073400
H	 -2.548679	 0.042177	 -1.445614
H	 -2.373719	 -2.404028	 -1.107671
H	 -1.779235	 -2.161155	 0.524796
H	 -0.806900	 -1.660213	 -0.846340

	symmetry c1
}
set optking {
	frozen_dihedral = ("
		7 4 6 10,
		12 9 6 10,
		5 3 4 7,
		1 2 3 5
	")
}

ee = energy('scf')
oeprop('DIPOLE', 'QUADRUPOLE', 'MULLIKEN_CHARGES')
f=open( 'psi4out.xyz', 'w' )
f.write( "20  " )
f.write( str(ee) + "\n" )
f.write( MOL.save_string_xyz() )
f.close()
--------------------------------------------------------------------------

  Memory set to   2.000 GiB by Python script.

*** tstart() called on cx1-1-1-2.cx1.hpc.ic.ac.uk
*** at Tue Jul  5 16:33:46 2016


         ---------------------------------------------------------
                                   SCF
            by Justin Turney, Rob Parrish, and Andy Simmonett
                              RHF Reference
                        1 Threads,   2000 MiB Core
         ---------------------------------------------------------

  ==> Geometry <==

    Molecular point group: c1
    Full point group: C1

    Geometry (in Angstrom), charge = 0, multiplicity = 1:

       Center              X                  Y                   Z               Mass       
    ------------   -----------------  -----------------  -----------------  -----------------
           H          3.452749457065    -0.764997548284    -0.017942036674     1.007825032070
           O          2.549294457065    -0.995921548284     0.174926963326    15.994914619560
           C          1.801005457065     0.095737451716     0.017574963326    12.000000000000
           C          0.347751457065    -0.180294548284     0.305766963326    12.000000000000
           O          2.266243457065     1.138122451716    -0.311063036674    15.994914619560
           C         -0.542623542935     1.047228451716     0.125581963326    12.000000000000
           H          0.047294457065    -1.000552548284    -0.337875036674     1.007825032070
           H          0.288302457065    -0.562814548284     1.321589963326     1.007825032070
           C         -2.005419542935     0.809369451716     0.514767963326    12.000000000000
           H         -0.485865542935     1.382766451716    -0.905522036674     1.007825032070
           H         -0.141662542935     1.856147451716     0.726568963326     1.007825032070
           C         -2.759181542935    -0.179776548284    -0.378759036674    12.000000000000
           H         -2.521986542935     1.765946451716     0.485095963326     1.007825032070
           H         -2.056053542935     0.471644451716     1.548950963326     1.007825032070
           C         -2.099978542935    -1.558407548284    -0.414895036674    12.000000000000
           H         -3.782021542935    -0.278064548284    -0.020734036674     1.007825032070
           H         -2.825400542935     0.205473451716    -1.392948036674     1.007825032070
           H         -2.650440542935    -2.240731548284    -1.055005036674     1.007825032070
           H         -2.055956542935    -1.997858548284     0.577461963326     1.007825032070
           H         -1.083621542935    -1.496916548284    -0.793674036674     1.007825032070

  Running in c1 symmetry.

  Rotational constants: A =      0.13143  B =      0.03362  C =      0.02850 [cm^-1]
  Rotational constants: A =   3940.04519  B =   1007.80937  C =    854.46367 [MHz]
  Nuclear repulsion =  389.065720021747438

  Charge       = 0
  Multiplicity = 1
  Electrons    = 64
  Nalpha       = 32
  Nbeta        = 32

  ==> Algorithm <==

  SCF Algorithm Type is DF.
  DIIS enabled.
  MOM disabled.
  Fractional occupation disabled.
  Guess Type is CORE.
  Energy threshold   = 1.00e-06
  Density threshold  = 1.00e-06
  Integral threshold = 0.00e+00

  ==> Primary Basis <==

  Basis Set: 6-31G*
    Number of shells: 72
    Number of basis function: 144
    Number of Cartesian functions: 144
    Spherical Harmonics?: false
    Max angular momentum: 2

  ==> Pre-Iterations <==

   -------------------------------------------------------
    Irrep   Nso     Nmo     Nalpha   Nbeta   Ndocc  Nsocc
   -------------------------------------------------------
     A        144     144       0       0       0       0
   -------------------------------------------------------
    Total     144     144      32      32      32       0
   -------------------------------------------------------

 OEINTS: Overlap, kinetic, potential, dipole, and quadrupole integrals
         stored in file 35.

  ==> Integral Setup <==

  ==> DFJK: Density-Fitted J/K Matrices <==

    J tasked:                  Yes
    K tasked:                  Yes
    wK tasked:                  No
    OpenMP threads:              1
    Integrals threads:           1
    Memory (MB):              1430
    Algorithm:                Core
    Integral Cache:           NONE
    Schwarz Cutoff:          1E-12
    Fitting Condition:       1E-12

   => Auxiliary Basis Set <=

  Basis Set: 
    Number of shells: 300
    Number of basis function: 948
    Number of Cartesian functions: 948
    Spherical Harmonics?: false
    Max angular momentum: 3

  Minimum eigenvalue in the overlap matrix is 2.9626030596E-03.
  Using Symmetric Orthogonalization.
  SCF Guess: Core (One-Electron) Hamiltonian.

  ==> Iterations <==

                           Total Energy        Delta E     RMS |[F,P]|

   @DF-RHF iter   1:  -296.84551626681298   -2.96846e+02   6.34855e-02 
   @DF-RHF iter   2:  -145.86593136752344    1.50980e+02   7.89165e-02 DIIS
   @DF-RHF iter   3:  -342.48087934021430   -1.96615e+02   3.33926e-02 DIIS
   @DF-RHF iter   4:  -217.14102968488464    1.25340e+02   7.90176e-02 DIIS
   @DF-RHF iter   5:  -269.00014890749878   -5.18591e+01   6.93643e-02 DIIS
   @DF-RHF iter   6:  -290.69108369686126   -2.16909e+01   6.20421e-02 DIIS
   @DF-RHF iter   7:  -295.60567910139753   -4.91460e+00   6.15982e-02 DIIS
   @DF-RHF iter   8:  -300.11491850450511   -4.50924e+00   6.42794e-02 DIIS
   @DF-RHF iter   9:  -300.38010501153121   -2.65187e-01   6.44245e-02 DIIS
   @DF-RHF iter  10:  -304.28178646910237   -3.90168e+00   6.28780e-02 DIIS
   @DF-RHF iter  11:  -314.89621043945942   -1.06144e+01   5.86969e-02 DIIS
   @DF-RHF iter  12:  -314.28286160287894    6.13349e-01   5.91046e-02 DIIS
   @DF-RHF iter  13:  -290.92444216495403    2.33584e+01   6.14828e-02 DIIS
   @DF-RHF iter  14:  -290.46314885722734    4.61293e-01   6.17418e-02 DIIS
   @DF-RHF iter  15:  -290.53801191868081   -7.48631e-02   6.17704e-02 DIIS
   @DF-RHF iter  16:  -289.66991637625529    8.68096e-01   6.26572e-02 DIIS
   @DF-RHF iter  17:  -346.72738569539115   -5.70575e+01   4.69084e-02 DIIS
   @DF-RHF iter  18:  -371.95019068011686   -2.52228e+01   2.54655e-02 DIIS
   @DF-RHF iter  19:  -382.27190664410568   -1.03217e+01   1.22480e-02 DIIS
   @DF-RHF iter  20:  -383.59859834859617   -1.32669e+00   5.75540e-03 DIIS
   @DF-RHF iter  21:  -383.88847464794810   -2.89876e-01   1.32853e-03 DIIS
   @DF-RHF iter  22:  -383.91719468007591   -2.87200e-02   4.72810e-04 DIIS
   @DF-RHF iter  23:  -383.92095605943348   -3.76138e-03   1.39821e-04 DIIS
   @DF-RHF iter  24:  -383.92142599091108   -4.69931e-04   5.17539e-05 DIIS
   @DF-RHF iter  25:  -383.92146045681272   -3.44659e-05   1.57345e-05 DIIS
   @DF-RHF iter  26:  -383.92146505419953   -4.59739e-06   5.37542e-06 DIIS
   @DF-RHF iter  27:  -383.92146543775903   -3.83559e-07   1.83403e-06 DIIS
   @DF-RHF iter  28:  -383.92146551231997   -7.45609e-08   5.22693e-07 DIIS

  ==> Post-Iterations <==

    Orbital Energies (a.u.)
    -----------------------

    Doubly Occupied:                                                      

       1A    -20.611245     2A    -20.549307     3A    -11.378378  
       4A    -11.234175     5A    -11.223187     6A    -11.221479  
       7A    -11.220756     8A    -11.211561     9A     -1.472924  
      10A     -1.363831    11A     -1.102054    12A     -1.034969  
      13A     -0.968505    14A     -0.878973    15A     -0.805051  
      16A     -0.781802    17A     -0.698592    18A     -0.694120  
      19A     -0.672967    20A     -0.630435    21A     -0.615122  
      22A     -0.593518    23A     -0.569247    24A     -0.557053  
      25A     -0.551058    26A     -0.513960    27A     -0.494331  
      28A     -0.477693    29A     -0.470621    30A     -0.467522  
      31A     -0.451554    32A     -0.431757  

    Virtual:                                                              

      33A      0.197801    34A      0.223402    35A      0.236107  
      36A      0.252122    37A      0.271723    38A      0.284096  
      39A      0.305998    40A      0.320017    41A      0.332142  
      42A      0.336881    43A      0.340417    44A      0.350265  
      45A      0.385419    46A      0.403670    47A      0.422154  
      48A      0.447536    49A      0.468696    50A      0.494938  
      51A      0.534829    52A      0.554656    53A      0.698192  
      54A      0.725983    55A      0.736677    56A      0.747431  
      57A      0.762755    58A      0.789524    59A      0.798141  
      60A      0.835185    61A      0.885278    62A      0.917469  
      63A      0.944762    64A      0.958402    65A      0.967124  
      66A      0.997098    67A      1.004814    68A      1.052889  
      69A      1.078533    70A      1.099366    71A      1.113355  
      72A      1.131444    73A      1.149283    74A      1.157054  
      75A      1.161492    76A      1.177387    77A      1.189748  
      78A      1.209246    79A      1.218637    80A      1.230985  
      81A      1.242038    82A      1.252092    83A      1.256857  
      84A      1.268526    85A      1.278574    86A      1.319373  
      87A      1.370500    88A      1.392579    89A      1.411748  
      90A      1.485711    91A      1.606931    92A      1.629437  
      93A      1.682688    94A      1.685712    95A      1.746152  
      96A      1.808133    97A      1.859202    98A      1.889765  
      99A      1.935799   100A      1.953596   101A      1.989217  
     102A      2.064115   103A      2.069568   104A      2.079091  
     105A      2.118834   106A      2.127917   107A      2.167402  
     108A      2.206467   109A      2.258929   110A      2.266074  
     111A      2.277646   112A      2.309427   113A      2.316838  
     114A      2.371968   115A      2.380346   116A      2.427808  
     117A      2.446428   118A      2.558134   119A      2.613684  
     120A      2.660937   121A      2.670518   122A      2.687508  
     123A      2.713632   124A      2.762901   125A      2.786608  
     126A      2.820672   127A      2.856018   128A      2.946533  
     129A      2.986517   130A      2.998408   131A      3.025300  
     132A      3.088144   133A      3.125685   134A      3.284882  
     135A      3.392180   136A      3.514132   137A      4.273422  
     138A      4.532123   139A      4.566264   140A      4.679175  
     141A      4.743532   142A      4.838628   143A      4.957825  
     144A      5.031916  

    Final Occupation by Irrep:
              A 
    DOCC [    32 ]

  Energy converged.

  @DF-RHF Final Energy:  -383.92146551231997

   => Energetics <=

    Nuclear Repulsion Energy =            389.0657200217474383
    One-Electron Energy =               -1294.0788654346470139
    Two-Electron Energy =                 521.0916799005802886
    DFT Exchange-Correlation Energy =       0.0000000000000000
    Empirical Dispersion Energy =           0.0000000000000000
    PCM Polarization Energy =               0.0000000000000000
    EFP Energy =                            0.0000000000000000
    Total Energy =                       -383.9214655123192870

    Alert: EFP and PCM quantities not currently incorporated into SCF psivars.

Properties will be evaluated at   0.000000,   0.000000,   0.000000 Bohr
  ==> Properties <==


Properties computed using the SCF density matrix

  Nuclear Dipole Moment: (a.u.)
     X:   -12.9277      Y:    -2.4929      Z:     0.1268

  Electronic Dipole Moment: (a.u.)
     X:    12.5847      Y:     1.9437      Z:     0.0434

  Dipole Moment: (a.u.)
     X:    -0.3430      Y:    -0.5492      Z:     0.1702     Total:     0.6695

  Dipole Moment: (Debye)
     X:    -0.8718      Y:    -1.3960      Z:     0.4327     Total:     1.7018


  Saving occupied orbitals to File 180.

*** tstop() called on cx1-1-1-2.cx1.hpc.ic.ac.uk at Tue Jul  5 16:34:10 2016
Module time:
	user time   =      23.49 seconds =       0.39 minutes
	system time =       0.36 seconds =       0.01 minutes
	total time  =         24 seconds =       0.40 minutes
Total time:
	user time   =      23.49 seconds =       0.39 minutes
	system time =       0.36 seconds =       0.01 minutes
	total time  =         24 seconds =       0.40 minutes


Properties will be evaluated at   0.000000,   0.000000,   0.000000 Bohr

Properties computed using the  density matrix

  Nuclear Dipole Moment: (a.u.)
     X:   -12.9277      Y:    -2.4929      Z:     0.1268

  Electronic Dipole Moment: (a.u.)
     X:    12.5847      Y:     1.9437      Z:     0.0434

  Dipole Moment: (a.u.)
     X:    -0.3430      Y:    -0.5492      Z:     0.1702     Total:     0.6695

  Dipole Moment: (Debye)
     X:    -0.8718      Y:    -1.3960      Z:     0.4327     Total:     1.7018

  Quadrupole Moment: (Debye Ang)
    XX:   -47.4314     YY:   -55.2452     ZZ:   -49.5588
    XY:    -4.6985     XZ:     0.6018     YZ:     1.5040

  Traceless Quadrupole Moment: (Debye Ang)
    XX:     3.3137     YY:    -4.5001     ZZ:     1.1863
    XY:    -4.6985     XZ:     0.6018     YZ:     1.5040

  Mulliken Charges: (a.u.)
   Center  Symbol    Alpha    Beta     Spin     Total
       1     H     0.26806  0.26806  0.00000  0.46389
       2     O     4.35167  4.35167  0.00000 -0.70334
       3     C     2.62102  2.62102  0.00000  0.75797
       4     C     3.21351  3.21351  0.00000 -0.42703
       5     O     4.28010  4.28010  0.00000 -0.56020
       6     C     3.15518  3.15518  0.00000 -0.31036
       7     H     0.39936  0.39936  0.00000  0.20128
       8     H     0.39889  0.39889  0.00000  0.20222
       9     C     3.15862  3.15862  0.00000 -0.31724
      10     H     0.41248  0.41248  0.00000  0.17504
      11     H     0.40654  0.40654  0.00000  0.18691
      12     C     3.15155  3.15155  0.00000 -0.30309
      13     H     0.41625  0.41625  0.00000  0.16750
      14     H     0.42358  0.42358  0.00000  0.15284
      15     C     3.24161  3.24161  0.00000 -0.48323
      16     H     0.41823  0.41823  0.00000  0.16354
      17     H     0.42072  0.42072  0.00000  0.15855
      18     H     0.41661  0.41661  0.00000  0.16679
      19     H     0.42058  0.42058  0.00000  0.15884
      20     H     0.42544  0.42544  0.00000  0.14912

   Total alpha = 32.00000, Total beta = 32.00000, Total charge =  0.00000


*** PSI4 exiting successfully. Buy a developer a beer!
