    -----------------------------------------------------------------------
          Psi4: An Open-Source Ab Initio Electronic Structure Package
                              Psi4 (no tag) Driver

                          Git: Rev {detached?}  

    J. M. Turney, A. C. Simmonett, R. M. Parrish, E. G. Hohenstein,
    F. A. Evangelista, J. T. Fermann, B. J. Mintz, L. A. Burns, J. J. Wilke,
    M. L. Abrams, N. J. Russ, M. L. Leininger, C. L. Janssen, E. T. Seidl,
    W. D. Allen, H. F. Schaefer, R. A. King, E. F. Valeev, C. D. Sherrill,
    and T. D. Crawford, WIREs Comput. Mol. Sci. 2, 556-565 (2012)
    (doi: 10.1002/wcms.93)

                         Additional Contributions by
    A. E. DePrince, M. Saitow, U. Bozkaya, A. Yu. Sokolov
    -----------------------------------------------------------------------


    Psi4 started on: Tue Jul  5 16:42:32 2016

    Process ID:   5088
    PSI4DATADIR: /export131/home/mjharvey/miniconda3/share
    Memory level set to 256.000 MB

  ==> Input File <==

--------------------------------------------------------------------------
set {
	reference rhf
	basis 6-31G*
}


set_num_threads( 1 )
memory 2 gb

molecule MOL {
0 1

H	 2.845955	 -0.323208	 0.022310
C	 1.900140	 0.071967	 -0.330070
C	 0.778463	 -0.508087	 0.517968
H	 1.782469	 -0.206877	 -1.370777
H	 1.922247	 1.149867	 -0.254252
N	 -0.540928	 0.005139	 0.058438
H	 0.716718	 -1.581298	 0.454712
H	 0.859711	 -0.198647	 1.550086
O	 -0.947306	 1.008985	 0.554848
O	 -1.103279	 -0.628480	 -0.782270

	symmetry c1
}
ee = energy('scf')
oeprop('DIPOLE', 'QUADRUPOLE', 'MULLIKEN_CHARGES')
f=open( 'psi4out.xyz', 'w' )
f.write( "10  " )
f.write( str(ee) + "\n" )
f.write( MOL.save_string_xyz() )
f.close()
--------------------------------------------------------------------------

  Memory set to   2.000 GiB by Python script.

*** tstart() called on cx1-3-16-3.cx1.hpc.ic.ac.uk
*** at Tue Jul  5 16:42:33 2016


         ---------------------------------------------------------
                                   SCF
            by Justin Turney, Rob Parrish, and Andy Simmonett
                              RHF Reference
                        1 Threads,   2000 MiB Core
         ---------------------------------------------------------

  ==> Geometry <==

    Molecular point group: c1
    Full point group: C1

    Geometry (in Angstrom), charge = 0, multiplicity = 1:

       Center              X                  Y                   Z               Mass       
    ------------   -----------------  -----------------  -----------------  -----------------
           H          2.846483520861    -0.319948398290     0.024432860813     1.007825032070
           C          1.900668520861     0.075226601710    -0.327947139187    12.000000000000
           C          0.778991520861    -0.504827398290     0.520090860813    12.000000000000
           H          1.782997520861    -0.203617398290    -1.368654139187     1.007825032070
           H          1.922775520861     1.153126601710    -0.252129139187     1.007825032070
           N         -0.540399479139     0.008398601710     0.060560860813    14.003074004780
           H          0.717246520861    -1.578038398290     0.456834860813     1.007825032070
           H          0.860239520861    -0.195387398290     1.552208860813     1.007825032070
           O         -0.946777479139     1.012244601710     0.556970860813    15.994914619560
           O         -1.102750479139    -0.625220398290    -0.780147139187    15.994914619560

  Running in c1 symmetry.

  Rotational constants: A =      0.31873  B =      0.14111  C =      0.11647 [cm^-1]
  Rotational constants: A =   9555.30567  B =   4230.22951  C =   3491.69734 [MHz]
  Nuclear repulsion =  185.965804353914336

  Charge       = 0
  Multiplicity = 1
  Electrons    = 40
  Nalpha       = 20
  Nbeta        = 20

  ==> Algorithm <==

  SCF Algorithm Type is DF.
  DIIS enabled.
  MOM disabled.
  Fractional occupation disabled.
  Guess Type is CORE.
  Energy threshold   = 1.00e-06
  Density threshold  = 1.00e-06
  Integral threshold = 0.00e+00

  ==> Primary Basis <==

  Basis Set: 6-31G*
    Number of shells: 40
    Number of basis function: 85
    Number of Cartesian functions: 85
    Spherical Harmonics?: false
    Max angular momentum: 2

  ==> Pre-Iterations <==

   -------------------------------------------------------
    Irrep   Nso     Nmo     Nalpha   Nbeta   Ndocc  Nsocc
   -------------------------------------------------------
     A         85      85       0       0       0       0
   -------------------------------------------------------
    Total      85      85      20      20      20       0
   -------------------------------------------------------

 OEINTS: Overlap, kinetic, potential, dipole, and quadrupole integrals
         stored in file 35.

  ==> Integral Setup <==

  ==> DFJK: Density-Fitted J/K Matrices <==

    J tasked:                  Yes
    K tasked:                  Yes
    wK tasked:                  No
    OpenMP threads:              1
    Integrals threads:           1
    Memory (MB):              1430
    Algorithm:                Core
    Integral Cache:           NONE
    Schwarz Cutoff:          1E-12
    Fitting Condition:       1E-12

   => Auxiliary Basis Set <=

  Basis Set: 
    Number of shells: 165
    Number of basis function: 530
    Number of Cartesian functions: 530
    Spherical Harmonics?: false
    Max angular momentum: 3

  Minimum eigenvalue in the overlap matrix is 3.2552780053E-03.
  Using Symmetric Orthogonalization.
  SCF Guess: Core (One-Electron) Hamiltonian.

  ==> Iterations <==

                           Total Energy        Delta E     RMS |[F,P]|

   @DF-RHF iter   1:  -232.78368473190068   -2.32784e+02   8.65006e-02 
   @DF-RHF iter   2:  -167.75838045794711    6.50253e+01   1.01840e-01 DIIS
   @DF-RHF iter   3:  -269.57563494169500   -1.01817e+02   3.25935e-02 DIIS
   @DF-RHF iter   4:  -253.59982369566342    1.59758e+01   6.67208e-02 DIIS
   @DF-RHF iter   5:  -271.92180649617012   -1.83220e+01   4.66958e-02 DIIS
   @DF-RHF iter   6:  -281.86294129916217   -9.94113e+00   1.43532e-02 DIIS
   @DF-RHF iter   7:  -282.53153958570903   -6.68598e-01   6.23829e-03 DIIS
   @DF-RHF iter   8:  -282.64174884642688   -1.10209e-01   3.61688e-03 DIIS
   @DF-RHF iter   9:  -282.69093859880178   -4.91898e-02   1.33414e-03 DIIS
   @DF-RHF iter  10:  -282.69918418252723   -8.24558e-03   4.08147e-04 DIIS
   @DF-RHF iter  11:  -282.70005720053700   -8.73018e-04   1.84635e-04 DIIS
   @DF-RHF iter  12:  -282.70019928095746   -1.42080e-04   4.50483e-05 DIIS
   @DF-RHF iter  13:  -282.70021727493366   -1.79940e-05   1.09862e-05 DIIS
   @DF-RHF iter  14:  -282.70021857449569   -1.29956e-06   4.75331e-06 DIIS
   @DF-RHF iter  15:  -282.70021893039006   -3.55894e-07   2.27831e-06 DIIS
   @DF-RHF iter  16:  -282.70021903440437   -1.04014e-07   8.69430e-07 DIIS

  ==> Post-Iterations <==

    Orbital Energies (a.u.)
    -----------------------

    Doubly Occupied:                                                      

       1A    -20.602459     2A    -20.601047     3A    -15.848306  
       4A    -11.303761     5A    -11.254640     6A     -1.631901  
       7A     -1.417364     8A     -1.127713     9A     -0.968634  
      10A     -0.838213    11A     -0.759766    12A     -0.734533  
      13A     -0.725275    14A     -0.658881    15A     -0.592178  
      16A     -0.562033    17A     -0.550469    18A     -0.484332  
      19A     -0.477614    20A     -0.449201  

    Virtual:                                                              

      21A      0.118268    22A      0.229847    23A      0.269465  
      24A      0.273277    25A      0.294815    26A      0.312020  
      27A      0.319668    28A      0.374578    29A      0.530903  
      30A      0.610785    31A      0.685734    32A      0.703589  
      33A      0.719076    34A      0.750523    35A      0.853313  
      36A      0.875052    37A      0.922046    38A      0.988794  
      39A      1.039335    40A      1.076718    41A      1.077365  
      42A      1.100666    43A      1.124200    44A      1.136788  
      45A      1.183187    46A      1.210519    47A      1.220785  
      48A      1.255362    49A      1.275595    50A      1.303773  
      51A      1.332509    52A      1.413011    53A      1.528215  
      54A      1.598653    55A      1.685955    56A      1.768962  
      57A      1.868754    58A      1.962797    59A      1.979330  
      60A      2.085249    61A      2.106869    62A      2.143310  
      63A      2.167887    64A      2.226675    65A      2.268937  
      66A      2.271775    67A      2.412713    68A      2.418746  
      69A      2.531754    70A      2.539929    71A      2.612617  
      72A      2.648011    73A      2.726543    74A      2.889283  
      75A      2.970160    76A      3.071913    77A      3.221879  
      78A      3.239720    79A      3.274227    80A      3.484890  
      81A      4.067758    82A      4.247441    83A      4.263686  
      84A      4.603352    85A      4.843893  

    Final Occupation by Irrep:
              A 
    DOCC [    20 ]

  Energy converged.

  @DF-RHF Final Energy:  -282.70021903440437

   => Energetics <=

    Nuclear Repulsion Energy =            185.9658043539143364
    One-Electron Energy =                -754.1554492252319051
    Two-Electron Energy =                 285.4894258369133695
    DFT Exchange-Correlation Energy =       0.0000000000000000
    Empirical Dispersion Energy =           0.0000000000000000
    PCM Polarization Energy =               0.0000000000000000
    EFP Energy =                            0.0000000000000000
    Total Energy =                       -282.7002190344041992

    Alert: EFP and PCM quantities not currently incorporated into SCF psivars.

Properties will be evaluated at   0.000000,   0.000000,   0.000000 Bohr
  ==> Properties <==


Properties computed using the SCF density matrix

  Nuclear Dipole Moment: (a.u.)
     X:     7.6131      Y:    -1.0705      Z:     0.3856

  Electronic Dipole Moment: (a.u.)
     X:    -6.0760      Y:     0.5807      Z:     0.0365

  Dipole Moment: (a.u.)
     X:     1.5371      Y:    -0.4898      Z:     0.4222     Total:     1.6675

  Dipole Moment: (Debye)
     X:     3.9068      Y:    -1.2450      Z:     1.0731     Total:     4.2385


  Saving occupied orbitals to File 180.

*** tstop() called on cx1-3-16-3.cx1.hpc.ic.ac.uk at Tue Jul  5 16:42:37 2016
Module time:
	user time   =       3.71 seconds =       0.06 minutes
	system time =       0.04 seconds =       0.00 minutes
	total time  =          4 seconds =       0.07 minutes
Total time:
	user time   =       3.71 seconds =       0.06 minutes
	system time =       0.04 seconds =       0.00 minutes
	total time  =          4 seconds =       0.07 minutes


Properties will be evaluated at   0.000000,   0.000000,   0.000000 Bohr

Properties computed using the  density matrix

  Nuclear Dipole Moment: (a.u.)
     X:     7.6131      Y:    -1.0705      Z:     0.3856

  Electronic Dipole Moment: (a.u.)
     X:    -6.0760      Y:     0.5807      Z:     0.0365

  Dipole Moment: (a.u.)
     X:     1.5371      Y:    -0.4898      Z:     0.4222     Total:     1.6675

  Dipole Moment: (Debye)
     X:     3.9068      Y:    -1.2450      Z:     1.0731     Total:     4.2385

  Quadrupole Moment: (Debye Ang)
    XX:   -30.2980     YY:   -30.9407     ZZ:   -29.8301
    XY:     0.2181     XZ:    -0.6329     YZ:    -2.6702

  Traceless Quadrupole Moment: (Debye Ang)
    XX:     0.0582     YY:    -0.5844     ZZ:     0.5262
    XY:     0.2181     XZ:    -0.6329     YZ:    -2.6702

  Mulliken Charges: (a.u.)
   Center  Symbol    Alpha    Beta     Spin     Total
       1     H     0.40380  0.40380  0.00000  0.19239
       2     C     3.25747  3.25747  0.00000 -0.51493
       3     C     3.08884  3.08884  0.00000 -0.17768
       4     H     0.39787  0.39787  0.00000  0.20426
       5     H     0.39754  0.39754  0.00000  0.20493
       6     N     3.22045  3.22045  0.00000  0.55910
       7     H     0.38679  0.38679  0.00000  0.22642
       8     H     0.38800  0.38800  0.00000  0.22401
       9     O     4.22918  4.22918  0.00000 -0.45836
      10     O     4.23007  4.23007  0.00000 -0.46014

   Total alpha = 20.00000, Total beta = 20.00000, Total charge =  0.00000


*** PSI4 exiting successfully. Buy a developer a beer!
