    -----------------------------------------------------------------------
          Psi4: An Open-Source Ab Initio Electronic Structure Package
                              Psi4 (no tag) Driver

                          Git: Rev {detached?}  

    J. M. Turney, A. C. Simmonett, R. M. Parrish, E. G. Hohenstein,
    F. A. Evangelista, J. T. Fermann, B. J. Mintz, L. A. Burns, J. J. Wilke,
    M. L. Abrams, N. J. Russ, M. L. Leininger, C. L. Janssen, E. T. Seidl,
    W. D. Allen, H. F. Schaefer, R. A. King, E. F. Valeev, C. D. Sherrill,
    and T. D. Crawford, WIREs Comput. Mol. Sci. 2, 556-565 (2012)
    (doi: 10.1002/wcms.93)

                         Additional Contributions by
    A. E. DePrince, M. Saitow, U. Bozkaya, A. Yu. Sokolov
    -----------------------------------------------------------------------


    Psi4 started on: Tue Jul  5 17:09:03 2016

    Process ID:  18013
    PSI4DATADIR: /export131/home/mjharvey/miniconda3/share
    Memory level set to 256.000 MB

  ==> Input File <==

--------------------------------------------------------------------------
set {
	reference rhf
	basis 6-31G*
}


set_num_threads( 1 )
memory 2 gb

molecule MOL {
0 1

H	 -2.646374	 -0.642757	 1.268656
C	 -2.083525	 -0.384536	 0.393091
O	 -0.807605	 -0.127164	 0.768327
F	 -2.118945	 -1.383102	 -0.486752
F	 -2.621877	 0.670592	 -0.209486
C	 0.084052	 0.273579	 -0.209957
C	 -0.231388	 -0.539104	 -1.459038
Cl	 1.755285	 -0.001945	 0.308003
H	 -0.014927	 1.317419	 -0.451566
F	 0.080934	 -1.804319	 -1.275123
F	 0.494433	 -0.079572	 -2.458765
F	 -1.496179	 -0.460774	 -1.793912

	symmetry c1
}
set optking {
	frozen_dihedral = ("
		10 7 6 9,
		6 3 2 4
	")
}

ee = energy('scf')
oeprop('DIPOLE', 'QUADRUPOLE', 'MULLIKEN_CHARGES')
f=open( 'psi4out.xyz', 'w' )
f.write( "12  " )
f.write( str(ee) + "\n" )
f.write( MOL.save_string_xyz() )
f.close()
--------------------------------------------------------------------------

  Memory set to   2.000 GiB by Python script.

*** tstart() called on cx1-3-4-4.cx1.hpc.ic.ac.uk
*** at Tue Jul  5 17:09:04 2016


         ---------------------------------------------------------
                                   SCF
            by Justin Turney, Rob Parrish, and Andy Simmonett
                              RHF Reference
                        1 Threads,   2000 MiB Core
         ---------------------------------------------------------

  ==> Geometry <==

    Molecular point group: c1
    Full point group: C1

    Geometry (in Angstrom), charge = 0, multiplicity = 1:

       Center              X                  Y                   Z               Mass       
    ------------   -----------------  -----------------  -----------------  -----------------
           H         -2.165039848453    -0.276916365992     1.864804594782     1.007825032070
           C         -1.602190848453    -0.018695365992     0.989239594782    12.000000000000
           O         -0.326270848453     0.238676634008     1.364475594782    15.994914619560
           F         -1.637610848453    -1.017261365992     0.109396594782    18.998403224000
           F         -2.140542848453     1.036432634008     0.386662594782    18.998403224000
           C          0.565386151547     0.639419634008     0.386191594782    12.000000000000
           C          0.249946151547    -0.173263365992    -0.862889405218    12.000000000000
          CL          2.236619151547     0.363895634008     0.904151594782    34.968852682000
           H          0.466407151547     1.683259634008     0.144582594782     1.007825032070
           F          0.562268151547    -1.438478365992    -0.678974405218    18.998403224000
           F          0.975767151547     0.286268634008    -1.862616405218    18.998403224000
           F         -1.014844848453    -0.094933365992    -1.197763405218    18.998403224000

  Running in c1 symmetry.

  Rotational constants: A =      0.05947  B =      0.03505  C =      0.02804 [cm^-1]
  Rotational constants: A =   1782.90107  B =   1050.80704  C =    840.52793 [MHz]
  Nuclear repulsion =  785.011061794200373

  Charge       = 0
  Multiplicity = 1
  Electrons    = 90
  Nalpha       = 45
  Nbeta        = 45

  ==> Algorithm <==

  SCF Algorithm Type is DF.
  DIIS enabled.
  MOM disabled.
  Fractional occupation disabled.
  Guess Type is CORE.
  Energy threshold   = 1.00e-06
  Density threshold  = 1.00e-06
  Integral threshold = 0.00e+00

  ==> Primary Basis <==

  Basis Set: 6-31G*
    Number of shells: 66
    Number of basis function: 158
    Number of Cartesian functions: 158
    Spherical Harmonics?: false
    Max angular momentum: 2

  ==> Pre-Iterations <==

   -------------------------------------------------------
    Irrep   Nso     Nmo     Nalpha   Nbeta   Ndocc  Nsocc
   -------------------------------------------------------
     A        158     158       0       0       0       0
   -------------------------------------------------------
    Total     158     158      45      45      45       0
   -------------------------------------------------------

 OEINTS: Overlap, kinetic, potential, dipole, and quadrupole integrals
         stored in file 35.

  ==> Integral Setup <==

  ==> DFJK: Density-Fitted J/K Matrices <==

    J tasked:                  Yes
    K tasked:                  Yes
    wK tasked:                  No
    OpenMP threads:              1
    Integrals threads:           1
    Memory (MB):              1430
    Algorithm:                Core
    Integral Cache:           NONE
    Schwarz Cutoff:          1E-12
    Fitting Condition:       1E-12

   => Auxiliary Basis Set <=

  Basis Set: 
    Number of shells: 270
    Number of basis function: 909
    Number of Cartesian functions: 909
    Spherical Harmonics?: false
    Max angular momentum: 3

  Minimum eigenvalue in the overlap matrix is 1.4158492931E-03.
  Using Symmetric Orthogonalization.
  SCF Guess: Core (One-Electron) Hamiltonian.

  ==> Iterations <==

                           Total Energy        Delta E     RMS |[F,P]|

   @DF-RHF iter   1: -1060.19958712442667   -1.06020e+03   7.15941e-02 
   @DF-RHF iter   2:  -921.63460953843139    1.38565e+02   7.46803e-02 DIIS
   @DF-RHF iter   3: -1068.58318362460659   -1.46949e+02   5.88714e-02 DIIS
   @DF-RHF iter   4: -1135.24309462403608   -6.66599e+01   2.39200e-02 DIIS
   @DF-RHF iter   5: -1111.62678374750385    2.36163e+01   4.07773e-02 DIIS
   @DF-RHF iter   6: -1145.64708508794001   -3.40203e+01   7.26175e-03 DIIS
   @DF-RHF iter   7: -1146.10848147678553   -4.61396e-01   2.93273e-03 DIIS
   @DF-RHF iter   8: -1146.17906595979593   -7.05845e-02   1.19793e-03 DIIS
   @DF-RHF iter   9: -1146.19734725597164   -1.82813e-02   3.70500e-04 DIIS
   @DF-RHF iter  10: -1146.19875944404839   -1.41219e-03   1.28944e-04 DIIS
   @DF-RHF iter  11: -1146.19902086737056   -2.61423e-04   3.76784e-05 DIIS
   @DF-RHF iter  12: -1146.19904775038731   -2.68830e-05   9.39969e-06 DIIS
   @DF-RHF iter  13: -1146.19904931406199   -1.56367e-06   3.23757e-06 DIIS
   @DF-RHF iter  14: -1146.19904949280999   -1.78748e-07   9.41258e-07 DIIS

  ==> Post-Iterations <==

    Orbital Energies (a.u.)
    -----------------------

    Doubly Occupied:                                                      

       1A   -104.851265     2A    -26.351835     3A    -26.347835  
       4A    -26.339913     5A    -26.334131     6A    -26.314119  
       7A    -20.644244     8A    -11.519697     9A    -11.484122  
      10A    -11.399724    11A    -10.585429    12A     -8.054829  
      13A     -8.051224    14A     -8.051102    15A     -1.772179  
      16A     -1.714841    17A     -1.658269    18A     -1.648955  
      19A     -1.619217    20A     -1.485017    21A     -1.180968  
      22A     -1.042796    23A     -0.997031    24A     -0.920591  
      25A     -0.880234    26A     -0.850507    27A     -0.838401  
      28A     -0.822263    29A     -0.818059    30A     -0.767522  
      31A     -0.745508    32A     -0.718253    33A     -0.706895  
      34A     -0.691160    35A     -0.667435    36A     -0.660502  
      37A     -0.657331    38A     -0.647565    39A     -0.645467  
      40A     -0.615883    41A     -0.549221    42A     -0.545039  
      43A     -0.533830    44A     -0.483321    45A     -0.470370  

    Virtual:                                                              

      46A      0.166020    47A      0.243547    48A      0.261571  
      49A      0.284095    50A      0.353783    51A      0.380911  
      52A      0.406024    53A      0.412060    54A      0.446303  
      55A      0.480401    56A      0.491830    57A      0.549860  
      58A      0.623038    59A      0.627845    60A      0.635110  
      61A      0.691047    62A      0.707098    63A      0.713359  
      64A      0.752034    65A      0.772223    66A      0.775520  
      67A      0.819355    68A      0.843073    69A      0.931036  
      70A      0.999242    71A      1.049904    72A      1.074531  
      73A      1.094218    74A      1.118522    75A      1.149889  
      76A      1.162832    77A      1.185105    78A      1.238918  
      79A      1.271359    80A      1.312203    81A      1.318425  
      82A      1.353016    83A      1.362271    84A      1.396113  
      85A      1.425719    86A      1.439371    87A      1.470875  
      88A      1.480330    89A      1.548613    90A      1.583150  
      91A      1.592328    92A      1.611140    93A      1.614958  
      94A      1.642433    95A      1.657068    96A      1.688758  
      97A      1.694911    98A      1.715981    99A      1.781228  
     100A      1.817493   101A      1.850548   102A      1.880826  
     103A      1.924482   104A      1.960725   105A      1.997793  
     106A      2.014329   107A      2.048305   108A      2.057193  
     109A      2.079806   110A      2.086608   111A      2.121828  
     112A      2.154705   113A      2.189670   114A      2.238626  
     115A      2.265040   116A      2.272796   117A      2.300393  
     118A      2.319103   119A      2.335651   120A      2.375526  
     121A      2.384515   122A      2.419012   123A      2.437325  
     124A      2.476740   125A      2.483679   126A      2.524264  
     127A      2.542747   128A      2.581264   129A      2.625020  
     130A      2.692958   131A      2.715168   132A      2.755742  
     133A      2.835109   134A      2.904165   135A      2.974215  
     136A      3.048252   137A      3.105876   138A      3.141158  
     139A      3.171823   140A      3.209049   141A      3.256420  
     142A      3.368107   143A      3.416280   144A      3.423913  
     145A      3.450963   146A      3.485815   147A      3.584540  
     148A      3.664123   149A      4.410942   150A      4.553667  
     151A      4.739397   152A      4.750236   153A      4.850067  
     154A      4.999126   155A      5.143214   156A      5.744538  
     157A      6.143721   158A      6.589289  

    Final Occupation by Irrep:
              A 
    DOCC [    45 ]

  Energy converged.

  @DF-RHF Final Energy: -1146.19904949280999

   => Energetics <=

    Nuclear Repulsion Energy =            785.0110617942003728
    One-Electron Energy =               -3153.0519458299495454
    Two-Electron Energy =                1221.8418345429395231
    DFT Exchange-Correlation Energy =       0.0000000000000000
    Empirical Dispersion Energy =           0.0000000000000000
    PCM Polarization Energy =               0.0000000000000000
    EFP Energy =                            0.0000000000000000
    Total Energy =                      -1146.1990494928095359

    Alert: EFP and PCM quantities not currently incorporated into SCF psivars.

Properties will be evaluated at   0.000000,   0.000000,   0.000000 Bohr
  ==> Properties <==


Properties computed using the SCF density matrix

  Nuclear Dipole Moment: (a.u.)
     X:    -0.5709      Y:     2.1448      Z:     4.1222

  Electronic Dipole Moment: (a.u.)
     X:     0.1966      Y:    -1.6974      Z:    -3.6020

  Dipole Moment: (a.u.)
     X:    -0.3743      Y:     0.4474      Z:     0.5201     Total:     0.7815

  Dipole Moment: (Debye)
     X:    -0.9513      Y:     1.1372      Z:     1.3221     Total:     1.9865


  Saving occupied orbitals to File 180.

*** tstop() called on cx1-3-4-4.cx1.hpc.ic.ac.uk at Tue Jul  5 17:09:23 2016
Module time:
	user time   =      18.30 seconds =       0.30 minutes
	system time =       0.22 seconds =       0.00 minutes
	total time  =         19 seconds =       0.32 minutes
Total time:
	user time   =      18.30 seconds =       0.30 minutes
	system time =       0.22 seconds =       0.00 minutes
	total time  =         19 seconds =       0.32 minutes


Properties will be evaluated at   0.000000,   0.000000,   0.000000 Bohr

Properties computed using the  density matrix

  Nuclear Dipole Moment: (a.u.)
     X:    -0.5709      Y:     2.1448      Z:     4.1222

  Electronic Dipole Moment: (a.u.)
     X:     0.1966      Y:    -1.6974      Z:    -3.6020

  Dipole Moment: (a.u.)
     X:    -0.3743      Y:     0.4474      Z:     0.5201     Total:     0.7815

  Dipole Moment: (Debye)
     X:    -0.9513      Y:     1.1372      Z:     1.3221     Total:     1.9865

  Quadrupole Moment: (Debye Ang)
    XX:   -59.6383     YY:   -59.7507     ZZ:   -60.2187
    XY:     1.5204     XZ:    -3.6355     YZ:    -0.7712

  Traceless Quadrupole Moment: (Debye Ang)
    XX:     0.2309     YY:     0.1185     ZZ:    -0.3494
    XY:     1.5204     XZ:    -3.6355     YZ:    -0.7712

  Mulliken Charges: (a.u.)
   Center  Symbol    Alpha    Beta     Spin     Total
       1     H     0.39389  0.39389  0.00000  0.21222
       2     C     2.55882  2.55882  0.00000  0.88235
       3     O     4.30962  4.30962  0.00000 -0.61925
       4     F     4.68670  4.68670  0.00000 -0.37341
       5     F     4.69281  4.69281  0.00000 -0.38562
       6     C     3.02503  3.02503  0.00000 -0.05005
       7     C     2.45373  2.45373  0.00000  1.09254
       8    CL     8.48777  8.48777  0.00000  0.02446
       9     H     0.37052  0.37052  0.00000  0.25896
      10     F     4.67421  4.67421  0.00000 -0.34843
      11     F     4.67774  4.67774  0.00000 -0.35548
      12     F     4.66915  4.66915  0.00000 -0.33830

   Total alpha = 45.00000, Total beta = 45.00000, Total charge = -0.00000


*** PSI4 exiting successfully. Buy a developer a beer!
