    -----------------------------------------------------------------------
          Psi4: An Open-Source Ab Initio Electronic Structure Package
                              Psi4 (no tag) Driver

                          Git: Rev {detached?}  

    J. M. Turney, A. C. Simmonett, R. M. Parrish, E. G. Hohenstein,
    F. A. Evangelista, J. T. Fermann, B. J. Mintz, L. A. Burns, J. J. Wilke,
    M. L. Abrams, N. J. Russ, M. L. Leininger, C. L. Janssen, E. T. Seidl,
    W. D. Allen, H. F. Schaefer, R. A. King, E. F. Valeev, C. D. Sherrill,
    and T. D. Crawford, WIREs Comput. Mol. Sci. 2, 556-565 (2012)
    (doi: 10.1002/wcms.93)

                         Additional Contributions by
    A. E. DePrince, M. Saitow, U. Bozkaya, A. Yu. Sokolov
    -----------------------------------------------------------------------


    Psi4 started on: Tue Jul  5 17:58:39 2016

    Process ID:  24940
    PSI4DATADIR: /export131/home/mjharvey/miniconda3/share
    Memory level set to 256.000 MB

  ==> Input File <==

--------------------------------------------------------------------------
set {
	reference rhf
	basis 6-31G*
}


set_num_threads( 1 )
memory 2 gb

molecule MOL {
0 1

O	 -3.853486	 4.767425	 2.367791
C	 -3.589812	 4.457530	 1.246542
C	 -2.652680	 3.307590	 0.923494
C	 -4.178810	 5.198743	 0.063816
C	 -2.933125	 2.035105	 1.717450
H	 -2.717326	 3.115698	 -0.146734
H	 -1.633034	 3.650735	 1.093720
C	 -2.067631	 0.858288	 1.263815
H	 -3.983628	 1.779724	 1.620736
H	 -2.767581	 2.230181	 2.772290
C	 -2.507310	 0.276384	 -0.080731
H	 -1.028581	 1.176927	 1.193876
H	 -2.094563	 0.074599	 2.019575
C	 -2.588556	 1.321215	 -1.195065
H	 -3.478453	 -0.201679	 0.034834
H	 -1.814883	 -0.510099	 -0.375665
C	 -3.801632	 2.241462	 -1.063631
H	 -1.680127	 1.920029	 -1.194243
H	 -2.620757	 0.817848	 -2.159142
H	 -3.780981	 2.785331	 -0.123456
H	 -3.831328	 2.971086	 -1.867041
H	 -4.728320	 1.675491	 -1.096357
H	 -4.744894	 4.518640	 -0.565967
H	 -4.826996	 5.989572	 0.414927
H	 -3.388670	 5.622899	 -0.548887

	symmetry c1
}
set optking {
	frozen_dihedral = ("
		9 5 8 12,
		15 11 8 12,
		15 11 14 18,
		1 2 3 6
	")
}

ee = energy('scf')
oeprop('DIPOLE', 'QUADRUPOLE', 'MULLIKEN_CHARGES')
f=open( 'psi4out.xyz', 'w' )
f.write( "25  " )
f.write( str(ee) + "\n" )
f.write( MOL.save_string_xyz() )
f.close()
--------------------------------------------------------------------------

  Memory set to   2.000 GiB by Python script.

*** tstart() called on cx1-1-2-1.cx1.hpc.ic.ac.uk
*** at Tue Jul  5 17:58:39 2016


         ---------------------------------------------------------
                                   SCF
            by Justin Turney, Rob Parrish, and Andy Simmonett
                              RHF Reference
                        1 Threads,   2000 MiB Core
         ---------------------------------------------------------

  ==> Geometry <==

    Molecular point group: c1
    Full point group: C1

    Geometry (in Angstrom), charge = 0, multiplicity = 1:

       Center              X                  Y                   Z               Mass       
    ------------   -----------------  -----------------  -----------------  -----------------
           O         -0.708192697147     2.031541602161     1.794409116236    15.994914619560
           C         -0.444518697147     1.721646602161     0.673160116236    12.000000000000
           C          0.492613302853     0.571706602161     0.350112116236    12.000000000000
           C         -1.033516697147     2.462859602161    -0.509565883764    12.000000000000
           C          0.212168302853    -0.700778397839     1.144068116236    12.000000000000
           H          0.427967302853     0.379814602161    -0.720115883764     1.007825032070
           H          1.512259302853     0.914851602161     0.520338116236     1.007825032070
           C          1.077662302853    -1.877595397839     0.690433116236    12.000000000000
           H         -0.838334697147    -0.956159397839     1.047354116236     1.007825032070
           H          0.377712302853    -0.505702397839     2.198908116236     1.007825032070
           C          0.637983302853    -2.459499397839    -0.654112883764    12.000000000000
           H          2.116712302853    -1.558956397839     0.620494116236     1.007825032070
           H          1.050730302853    -2.661284397839     1.446193116236     1.007825032070
           C          0.556737302853    -1.414668397839    -1.768446883764    12.000000000000
           H         -0.333159697147    -2.937562397839    -0.538547883764     1.007825032070
           H          1.330410302853    -3.245982397839    -0.949046883764     1.007825032070
           C         -0.656338697147    -0.494421397839    -1.637012883764    12.000000000000
           H          1.465166302853    -0.815854397839    -1.767624883764     1.007825032070
           H          0.524536302853    -1.918035397839    -2.732523883764     1.007825032070
           H         -0.635687697147     0.049447602161    -0.696837883764     1.007825032070
           H         -0.686034697147     0.235202602161    -2.440422883764     1.007825032070
           H         -1.583026697147    -1.060392397839    -1.669738883764     1.007825032070
           H         -1.599600697147     1.782756602161    -1.139348883764     1.007825032070
           H         -1.681702697147     3.253688602161    -0.158454883764     1.007825032070
           H         -0.243376697147     2.887015602161    -1.122268883764     1.007825032070

  Running in c1 symmetry.

  Rotational constants: A =      0.08762  B =      0.03475  C =      0.02688 [cm^-1]
  Rotational constants: A =   2626.80698  B =   1041.86806  C =    805.74855 [MHz]
  Nuclear repulsion =  489.995680375363520

  Charge       = 0
  Multiplicity = 1
  Electrons    = 72
  Nalpha       = 36
  Nbeta        = 36

  ==> Algorithm <==

  SCF Algorithm Type is DF.
  DIIS enabled.
  MOM disabled.
  Fractional occupation disabled.
  Guess Type is CORE.
  Energy threshold   = 1.00e-06
  Density threshold  = 1.00e-06
  Integral threshold = 0.00e+00

  ==> Primary Basis <==

  Basis Set: 6-31G*
    Number of shells: 86
    Number of basis function: 167
    Number of Cartesian functions: 167
    Spherical Harmonics?: false
    Max angular momentum: 2

  ==> Pre-Iterations <==

   -------------------------------------------------------
    Irrep   Nso     Nmo     Nalpha   Nbeta   Ndocc  Nsocc
   -------------------------------------------------------
     A        167     167       0       0       0       0
   -------------------------------------------------------
    Total     167     167      36      36      36       0
   -------------------------------------------------------

 OEINTS: Overlap, kinetic, potential, dipole, and quadrupole integrals
         stored in file 35.

  ==> Integral Setup <==

  ==> DFJK: Density-Fitted J/K Matrices <==

    J tasked:                  Yes
    K tasked:                  Yes
    wK tasked:                  No
    OpenMP threads:              1
    Integrals threads:           1
    Memory (MB):              1430
    Algorithm:                Core
    Integral Cache:           NONE
    Schwarz Cutoff:          1E-12
    Fitting Condition:       1E-12

   => Auxiliary Basis Set <=

  Basis Set: 
    Number of shells: 360
    Number of basis function: 1129
    Number of Cartesian functions: 1129
    Spherical Harmonics?: false
    Max angular momentum: 3

  Minimum eigenvalue in the overlap matrix is 2.8668598972E-03.
  Using Symmetric Orthogonalization.
  SCF Guess: Core (One-Electron) Hamiltonian.

  ==> Iterations <==

                           Total Energy        Delta E     RMS |[F,P]|

   @DF-RHF iter   1:  -299.84593177749190   -2.99846e+02   5.94312e-02 
   @DF-RHF iter   2:  -260.94022774713750    3.89057e+01   4.89264e-02 DIIS
   @DF-RHF iter   3:  -337.83288737838092   -7.68927e+01   4.43892e-02 DIIS
   @DF-RHF iter   4:  -375.49878328087829   -3.76659e+01   2.33378e-02 DIIS
   @DF-RHF iter   5:  -384.01882176366456   -8.52004e+00   1.05929e-02 DIIS
   @DF-RHF iter   6:  -385.84406991621023   -1.82525e+00   8.40517e-03 DIIS
   @DF-RHF iter   7:  -386.96008643384272   -1.11602e+00   1.78127e-03 DIIS
   @DF-RHF iter   8:  -386.99828806794761   -3.82016e-02   1.04064e-03 DIIS
   @DF-RHF iter   9:  -387.01029365692835   -1.20056e-02   2.94269e-04 DIIS
   @DF-RHF iter  10:  -387.01208918987703   -1.79553e-03   9.03186e-05 DIIS
   @DF-RHF iter  11:  -387.01224448115721   -1.55291e-04   3.21464e-05 DIIS
   @DF-RHF iter  12:  -387.01226545954609   -2.09784e-05   7.08699e-06 DIIS
   @DF-RHF iter  13:  -387.01226655086265   -1.09132e-06   2.36955e-06 DIIS
   @DF-RHF iter  14:  -387.01226671806518   -1.67203e-07   8.27789e-07 DIIS

  ==> Post-Iterations <==

    Orbital Energies (a.u.)
    -----------------------

    Doubly Occupied:                                                      

       1A    -20.549113     2A    -11.325419     3A    -11.226066  
       4A    -11.224969     5A    -11.223789     6A    -11.221067  
       7A    -11.220159     8A    -11.213443     9A    -11.203385  
      10A     -1.394404    11A     -1.128292    12A     -1.049525  
      13A     -1.027991    14A     -0.987394    15A     -0.896224  
      16A     -0.843299    17A     -0.783661    18A     -0.744388  
      19A     -0.701366    20A     -0.653066    21A     -0.629224  
      22A     -0.621113    23A     -0.604944    24A     -0.593745  
      25A     -0.575122    26A     -0.567930    27A     -0.558710  
      28A     -0.536103    29A     -0.514169    30A     -0.494467  
      31A     -0.483076    32A     -0.469708    33A     -0.464172  
      34A     -0.451913    35A     -0.422009    36A     -0.395138  

    Virtual:                                                              

      37A      0.160360    38A      0.227162    39A      0.244660  
      40A      0.253377    41A      0.263085    42A      0.289910  
      43A      0.294299    44A      0.303834    45A      0.307362  
      46A      0.313607    47A      0.318262    48A      0.325739  
      49A      0.338687    50A      0.342158    51A      0.355521  
      52A      0.378270    53A      0.385394    54A      0.413318  
      55A      0.429932    56A      0.444894    57A      0.463836  
      58A      0.475849    59A      0.489872    60A      0.500316  
      61A      0.545203    62A      0.694692    63A      0.729275  
      64A      0.734571    65A      0.744389    66A      0.757319  
      67A      0.779347    68A      0.784759    69A      0.833641  
      70A      0.858635    71A      0.880599    72A      0.901006  
      73A      0.912418    74A      0.927688    75A      0.947424  
      76A      0.975055    77A      0.988272    78A      1.001840  
      79A      1.010177    80A      1.046460    81A      1.074949  
      82A      1.094908    83A      1.111263    84A      1.112600  
      85A      1.132907    86A      1.141551    87A      1.149962  
      88A      1.161962    89A      1.164794    90A      1.181431  
      91A      1.193349    92A      1.194342    93A      1.212688  
      94A      1.224286    95A      1.234232    96A      1.244234  
      97A      1.257471    98A      1.265756    99A      1.276674  
     100A      1.296285   101A      1.313585   102A      1.317429  
     103A      1.369812   104A      1.400692   105A      1.438121  
     106A      1.518404   107A      1.563022   108A      1.634289  
     109A      1.675106   110A      1.709749   111A      1.746575  
     112A      1.796903   113A      1.815986   114A      1.836520  
     115A      1.879287   116A      1.945744   117A      1.965572  
     118A      1.992811   119A      2.070825   120A      2.090272  
     121A      2.107523   122A      2.121005   123A      2.137499  
     124A      2.174635   125A      2.208826   126A      2.235463  
     127A      2.245260   128A      2.251336   129A      2.272866  
     130A      2.312733   131A      2.321204   132A      2.349816  
     133A      2.391839   134A      2.411475   135A      2.460505  
     136A      2.471711   137A      2.533800   138A      2.573283  
     139A      2.610599   140A      2.642384   141A      2.672020  
     142A      2.687046   143A      2.728701   144A      2.736804  
     145A      2.748998   146A      2.759729   147A      2.801401  
     148A      2.829870   149A      2.878417   150A      2.937849  
     151A      2.964573   152A      3.003751   153A      3.016298  
     154A      3.060729   155A      3.097312   156A      3.187872  
     157A      3.374431   158A      3.396507   159A      4.444416  
     160A      4.559548   161A      4.628178   162A      4.709454  
     163A      4.779368   164A      4.859704   165A      4.939152  
     166A      4.991286   167A      5.073165  

    Final Occupation by Irrep:
              A 
    DOCC [    36 ]

  Energy converged.

  @DF-RHF Final Energy:  -387.01226671806518

   => Energetics <=

    Nuclear Repulsion Energy =            489.9956803753635199
    One-Electron Energy =               -1496.0187294615341216
    Two-Electron Energy =                 619.0107823681047421
    DFT Exchange-Correlation Energy =       0.0000000000000000
    Empirical Dispersion Energy =           0.0000000000000000
    PCM Polarization Energy =               0.0000000000000000
    EFP Energy =                            0.0000000000000000
    Total Energy =                       -387.0122667180659164

    Alert: EFP and PCM quantities not currently incorporated into SCF psivars.

Properties will be evaluated at   0.000000,   0.000000,   0.000000 Bohr
  ==> Properties <==


Properties computed using the SCF density matrix

  Nuclear Dipole Moment: (a.u.)
     X:     1.1258      Y:    -5.7624      Z:    -7.5864

  Electronic Dipole Moment: (a.u.)
     X:    -0.7974      Y:     5.2962      Z:     6.4903

  Dipole Moment: (a.u.)
     X:     0.3284      Y:    -0.4662      Z:    -1.0962     Total:     1.2356

  Dipole Moment: (Debye)
     X:     0.8347      Y:    -1.1850      Z:    -2.7862     Total:     3.1407


  Saving occupied orbitals to File 180.

*** tstop() called on cx1-1-2-1.cx1.hpc.ic.ac.uk at Tue Jul  5 17:59:07 2016
Module time:
	user time   =      26.55 seconds =       0.44 minutes
	system time =       0.23 seconds =       0.00 minutes
	total time  =         28 seconds =       0.47 minutes
Total time:
	user time   =      26.55 seconds =       0.44 minutes
	system time =       0.23 seconds =       0.00 minutes
	total time  =         28 seconds =       0.47 minutes


Properties will be evaluated at   0.000000,   0.000000,   0.000000 Bohr

Properties computed using the  density matrix

  Nuclear Dipole Moment: (a.u.)
     X:     1.1258      Y:    -5.7624      Z:    -7.5864

  Electronic Dipole Moment: (a.u.)
     X:    -0.7974      Y:     5.2962      Z:     6.4903

  Dipole Moment: (a.u.)
     X:     0.3284      Y:    -0.4662      Z:    -1.0962     Total:     1.2356

  Dipole Moment: (Debye)
     X:     0.8347      Y:    -1.1850      Z:    -2.7862     Total:     3.1407

  Quadrupole Moment: (Debye Ang)
    XX:   -58.5688     YY:   -60.3711     ZZ:   -64.7358
    XY:     1.3352     XZ:     2.2205     YZ:    -6.9285

  Traceless Quadrupole Moment: (Debye Ang)
    XX:     2.6564     YY:     0.8542     ZZ:    -3.5105
    XY:     1.3352     XZ:     2.2205     YZ:    -6.9285

  Mulliken Charges: (a.u.)
   Center  Symbol    Alpha    Beta     Spin     Total
       1     O     4.26148  4.26148  0.00000 -0.52297
       2     C     2.72610  2.72610  0.00000  0.54779
       3     C     3.26310  3.26310  0.00000 -0.52620
       4     C     3.29813  3.29813  0.00000 -0.59625
       5     C     3.16496  3.16496  0.00000 -0.32991
       6     H     0.38138  0.38138  0.00000  0.23724
       7     H     0.39993  0.39993  0.00000  0.20014
       8     C     3.15415  3.15415  0.00000 -0.30830
       9     H     0.41313  0.41313  0.00000  0.17374
      10     H     0.39847  0.39847  0.00000  0.20307
      11     C     3.15051  3.15051  0.00000 -0.30102
      12     H     0.42151  0.42151  0.00000  0.15698
      13     H     0.41607  0.41607  0.00000  0.16787
      14     C     3.17528  3.17528  0.00000 -0.35056
      15     H     0.42091  0.42091  0.00000  0.15819
      16     H     0.41824  0.41824  0.00000  0.16352
      17     C     3.26982  3.26982  0.00000 -0.53964
      18     H     0.41573  0.41573  0.00000  0.16855
      19     H     0.41143  0.41143  0.00000  0.17714
      20     H     0.40510  0.40510  0.00000  0.18981
      21     H     0.41537  0.41537  0.00000  0.16927
      22     H     0.41602  0.41602  0.00000  0.16797
      23     H     0.39901  0.39901  0.00000  0.20197
      24     H     0.39633  0.39633  0.00000  0.20733
      25     H     0.40785  0.40785  0.00000  0.18429

   Total alpha = 36.00000, Total beta = 36.00000, Total charge =  0.00000


*** PSI4 exiting successfully. Buy a developer a beer!
