    -----------------------------------------------------------------------
          Psi4: An Open-Source Ab Initio Electronic Structure Package
                              Psi4 (no tag) Driver

                          Git: Rev {detached?}  

    J. M. Turney, A. C. Simmonett, R. M. Parrish, E. G. Hohenstein,
    F. A. Evangelista, J. T. Fermann, B. J. Mintz, L. A. Burns, J. J. Wilke,
    M. L. Abrams, N. J. Russ, M. L. Leininger, C. L. Janssen, E. T. Seidl,
    W. D. Allen, H. F. Schaefer, R. A. King, E. F. Valeev, C. D. Sherrill,
    and T. D. Crawford, WIREs Comput. Mol. Sci. 2, 556-565 (2012)
    (doi: 10.1002/wcms.93)

                         Additional Contributions by
    A. E. DePrince, M. Saitow, U. Bozkaya, A. Yu. Sokolov
    -----------------------------------------------------------------------


    Psi4 started on: Tue Jul  5 16:43:30 2016

    Process ID:  29717
    PSI4DATADIR: /export131/home/mjharvey/miniconda3/share
    Memory level set to 256.000 MB

  ==> Input File <==

--------------------------------------------------------------------------
set {
	reference rhf
	basis 6-31G*
}


set_num_threads( 1 )
memory 2 gb

molecule MOL {
0 1

H	 -2.095845	 0.069849	 -0.369554
C	 -1.193199	 -0.484033	 -0.210393
C	 -1.185326	 -1.867295	 -0.209005
C	 0.000000	 0.183220	 0.000000
H	 -2.101477	 -2.404452	 -0.370547
C	 0.000000	 -2.555744	 0.000000
N	 0.000000	 1.642018	 0.000000
C	 1.193199	 -0.484034	 0.210393
H	 0.000000	 -3.630640	 0.000000
C	 1.185326	 -1.867295	 0.209005
O	 1.057097	 2.196749	 0.000000
O	 -1.057097	 2.196749	 0.000000
H	 2.095845	 0.069849	 0.369554
H	 2.101477	 -2.404452	 0.370547

	symmetry c1
}
ee = energy('scf')
oeprop('DIPOLE', 'QUADRUPOLE', 'MULLIKEN_CHARGES')
f=open( 'psi4out.xyz', 'w' )
f.write( "14  " )
f.write( str(ee) + "\n" )
f.write( MOL.save_string_xyz() )
f.close()
--------------------------------------------------------------------------

  Memory set to   2.000 GiB by Python script.

*** tstart() called on cx1-3-5-3.cx1.hpc.ic.ac.uk
*** at Tue Jul  5 16:43:31 2016


         ---------------------------------------------------------
                                   SCF
            by Justin Turney, Rob Parrish, and Andy Simmonett
                              RHF Reference
                        1 Threads,   2000 MiB Core
         ---------------------------------------------------------

  ==> Geometry <==

    Molecular point group: c1
    Full point group: C1

    Geometry (in Angstrom), charge = 0, multiplicity = 1:

       Center              X                  Y                   Z               Mass       
    ------------   -----------------  -----------------  -----------------  -----------------
           H         -2.095845000000     0.069849321857    -0.369554000000     1.007825032070
           C         -1.193199000000    -0.484032678143    -0.210393000000    12.000000000000
           C         -1.185326000000    -1.867294678143    -0.209005000000    12.000000000000
           C         -0.000000000000     0.183220321857    -0.000000000000    12.000000000000
           H         -2.101477000000    -2.404451678143    -0.370547000000     1.007825032070
           C         -0.000000000000    -2.555743678143    -0.000000000000    12.000000000000
           N         -0.000000000000     1.642018321857    -0.000000000000    14.003074004780
           C          1.193199000000    -0.484033678143     0.210393000000    12.000000000000
           H         -0.000000000000    -3.630639678143    -0.000000000000     1.007825032070
           C          1.185326000000    -1.867294678143     0.209005000000    12.000000000000
           O          1.057097000000     2.196749321857    -0.000000000000    15.994914619560
           O         -1.057097000000     2.196749321857    -0.000000000000    15.994914619560
           H          2.095845000000     0.069849321857     0.369554000000     1.007825032070
           H          2.101477000000    -2.404451678143     0.370547000000     1.007825032070

  Running in c1 symmetry.

  Rotational constants: A =      0.13589  B =      0.04368  C =      0.03315 [cm^-1]
  Rotational constants: A =   4073.84070  B =   1309.47734  C =    993.96019 [MHz]
  Nuclear repulsion =  417.133447769375778

  Charge       = 0
  Multiplicity = 1
  Electrons    = 64
  Nalpha       = 32
  Nbeta        = 32

  ==> Algorithm <==

  SCF Algorithm Type is DF.
  DIIS enabled.
  MOM disabled.
  Fractional occupation disabled.
  Guess Type is CORE.
  Energy threshold   = 1.00e-06
  Density threshold  = 1.00e-06
  Integral threshold = 0.00e+00

  ==> Primary Basis <==

  Basis Set: 6-31G*
    Number of shells: 64
    Number of basis function: 145
    Number of Cartesian functions: 145
    Spherical Harmonics?: false
    Max angular momentum: 2

  ==> Pre-Iterations <==

   -------------------------------------------------------
    Irrep   Nso     Nmo     Nalpha   Nbeta   Ndocc  Nsocc
   -------------------------------------------------------
     A        145     145       0       0       0       0
   -------------------------------------------------------
    Total     145     145      32      32      32       0
   -------------------------------------------------------

 OEINTS: Overlap, kinetic, potential, dipole, and quadrupole integrals
         stored in file 35.

  ==> Integral Setup <==

  ==> DFJK: Density-Fitted J/K Matrices <==

    J tasked:                  Yes
    K tasked:                  Yes
    wK tasked:                  No
    OpenMP threads:              1
    Integrals threads:           1
    Memory (MB):              1430
    Algorithm:                Core
    Integral Cache:           NONE
    Schwarz Cutoff:          1E-12
    Fitting Condition:       1E-12

   => Auxiliary Basis Set <=

  Basis Set: 
    Number of shells: 261
    Number of basis function: 854
    Number of Cartesian functions: 854
    Spherical Harmonics?: false
    Max angular momentum: 3

  Minimum eigenvalue in the overlap matrix is 4.3443769918E-04.
  Using Symmetric Orthogonalization.
  SCF Guess: Core (One-Electron) Hamiltonian.

  ==> Iterations <==

                           Total Energy        Delta E     RMS |[F,P]|

   @DF-RHF iter   1:  -352.88082056856950   -3.52881e+02   6.38148e-02 
   @DF-RHF iter   2:  -223.72712353011883    1.29154e+02   7.66609e-02 DIIS
   @DF-RHF iter   3:  -389.41340354449306   -1.65686e+02   3.73387e-02 DIIS
   @DF-RHF iter   4:  -331.99687966026380    5.74165e+01   6.66287e-02 DIIS
   @DF-RHF iter   5:  -403.72496438354739   -7.17281e+01   3.73070e-02 DIIS
   @DF-RHF iter   6:  -431.33383385368751   -2.76089e+01   1.27893e-02 DIIS
   @DF-RHF iter   7:  -432.52115488389285   -1.18732e+00   8.53627e-03 DIIS
   @DF-RHF iter   8:  -433.96664194700526   -1.44549e+00   4.15316e-03 DIIS
   @DF-RHF iter   9:  -434.14648804438428   -1.79846e-01   1.25500e-03 DIIS
   @DF-RHF iter  10:  -434.16615105758154   -1.96630e-02   6.10966e-04 DIIS
   @DF-RHF iter  11:  -434.17172903127454   -5.57797e-03   3.22849e-04 DIIS
   @DF-RHF iter  12:  -434.17375896334630   -2.02993e-03   9.24705e-05 DIIS
   @DF-RHF iter  13:  -434.17406186754266   -3.02904e-04   3.26021e-05 DIIS
   @DF-RHF iter  14:  -434.17411086371447   -4.89962e-05   1.78116e-05 DIIS
   @DF-RHF iter  15:  -434.17412427146922   -1.34078e-05   8.66248e-06 DIIS
   @DF-RHF iter  16:  -434.17412673696748   -2.46550e-06   2.21169e-06 DIIS
   @DF-RHF iter  17:  -434.17412698135382   -2.44386e-07   1.03919e-06 DIIS
   @DF-RHF iter  18:  -434.17412701262771   -3.12739e-08   3.38731e-07 DIIS

  ==> Post-Iterations <==

    Orbital Energies (a.u.)
    -----------------------

    Doubly Occupied:                                                      

       1A    -20.601012     2A    -20.600956     3A    -15.855716  
       4A    -11.303883     5A    -11.270780     6A    -11.270744  
       7A    -11.268242     8A    -11.261147     9A    -11.261036  
      10A     -1.634284    11A     -1.417442    12A     -1.201325  
      13A     -1.094415    14A     -1.052543    15A     -0.957978  
      16A     -0.864559    17A     -0.825129    18A     -0.784280  
      19A     -0.733437    20A     -0.728671    21A     -0.709128  
      22A     -0.654689    23A     -0.650139    24A     -0.624462  
      25A     -0.553194    26A     -0.535778    27A     -0.529487  
      28A     -0.488987    29A     -0.487010    30A     -0.451373  
      31A     -0.373863    32A     -0.365588  

    Virtual:                                                              

      33A      0.061650    34A      0.117191    35A      0.177581  
      36A      0.218572    37A      0.275769    38A      0.287914  
      39A      0.314923    40A      0.329885    41A      0.351514  
      42A      0.383588    43A      0.437178    44A      0.451688  
      45A      0.475895    46A      0.515053    47A      0.527782  
      48A      0.576986    49A      0.693179    50A      0.693537  
      51A      0.717911    52A      0.721352    53A      0.782262  
      54A      0.787806    55A      0.796975    56A      0.798588  
      57A      0.803927    58A      0.809570    59A      0.826251  
      60A      0.872768    61A      0.878779    62A      0.881952  
      63A      0.946530    64A      0.969439    65A      1.003420  
      66A      1.027953    67A      1.040698    68A      1.072644  
      69A      1.090954    70A      1.092755    71A      1.094858  
      72A      1.154033    73A      1.166139    74A      1.179395  
      75A      1.205745    76A      1.221631    77A      1.251799  
      78A      1.271746    79A      1.274906    80A      1.315420  
      81A      1.320692    82A      1.351666    83A      1.419383  
      84A      1.462218    85A      1.470043    86A      1.510976  
      87A      1.547585    88A      1.619781    89A      1.660315  
      90A      1.671361    91A      1.677646    92A      1.692608  
      93A      1.734872    94A      1.741606    95A      1.742040  
      96A      1.757913    97A      1.975289    98A      2.013709  
      99A      2.023591   100A      2.068382   101A      2.071125  
     102A      2.107167   103A      2.136549   104A      2.158242  
     105A      2.235296   106A      2.239956   107A      2.267550  
     108A      2.293843   109A      2.353405   110A      2.385312  
     111A      2.395463   112A      2.443097   113A      2.461690  
     114A      2.473403   115A      2.481334   116A      2.487156  
     117A      2.601415   118A      2.603440   119A      2.616693  
     120A      2.727806   121A      2.835037   122A      2.892608  
     123A      2.927389   124A      2.950074   125A      2.958455  
     126A      3.032234   127A      3.081559   128A      3.083173  
     129A      3.099151   130A      3.129374   131A      3.253264  
     132A      3.276690   133A      3.305760   134A      3.492802  
     135A      3.593458   136A      3.828391   137A      4.166862  
     138A      4.309595   139A      4.433433   140A      4.497001  
     141A      4.515774   142A      4.542556   143A      4.726659  
     144A      4.781038   145A      5.111113  

    Final Occupation by Irrep:
              A 
    DOCC [    32 ]

  Energy converged.

  @DF-RHF Final Energy:  -434.17412701262771

   => Energetics <=

    Nuclear Repulsion Energy =            417.1334477693757776
    One-Electron Energy =               -1417.7926359669045269
    Two-Electron Energy =                 566.4850611849019515
    DFT Exchange-Correlation Energy =       0.0000000000000000
    Empirical Dispersion Energy =           0.0000000000000000
    PCM Polarization Energy =               0.0000000000000000
    EFP Energy =                            0.0000000000000000
    Total Energy =                       -434.1741270126267409

    Alert: EFP and PCM quantities not currently incorporated into SCF psivars.

Properties will be evaluated at   0.000000,   0.000000,   0.000000 Bohr
  ==> Properties <==


Properties computed using the SCF density matrix

  Nuclear Dipole Moment: (a.u.)
     X:     0.0000      Y:    -7.7645      Z:     0.0000

  Electronic Dipole Moment: (a.u.)
     X:    -0.0000      Y:     5.7701      Z:    -0.0000

  Dipole Moment: (a.u.)
     X:    -0.0000      Y:    -1.9944      Z:    -0.0000     Total:     1.9944

  Dipole Moment: (Debye)
     X:    -0.0000      Y:    -5.0692      Z:    -0.0000     Total:     5.0692


  Saving occupied orbitals to File 180.

*** tstop() called on cx1-3-5-3.cx1.hpc.ic.ac.uk at Tue Jul  5 16:43:47 2016
Module time:
	user time   =      16.17 seconds =       0.27 minutes
	system time =       0.10 seconds =       0.00 minutes
	total time  =         16 seconds =       0.27 minutes
Total time:
	user time   =      16.17 seconds =       0.27 minutes
	system time =       0.10 seconds =       0.00 minutes
	total time  =         16 seconds =       0.27 minutes


Properties will be evaluated at   0.000000,   0.000000,   0.000000 Bohr

Properties computed using the  density matrix

  Nuclear Dipole Moment: (a.u.)
     X:     0.0000      Y:    -7.7645      Z:     0.0000

  Electronic Dipole Moment: (a.u.)
     X:    -0.0000      Y:     5.7701      Z:    -0.0000

  Dipole Moment: (a.u.)
     X:    -0.0000      Y:    -1.9944      Z:    -0.0000     Total:     1.9944

  Dipole Moment: (Debye)
     X:    -0.0000      Y:    -5.0692      Z:    -0.0000     Total:     5.0692

  Quadrupole Moment: (Debye Ang)
    XX:   -47.6413     YY:   -54.6314     ZZ:   -52.5832
    XY:    -0.0000     XZ:     1.8267     YZ:    -0.0000

  Traceless Quadrupole Moment: (Debye Ang)
    XX:     3.9773     YY:    -3.0128     ZZ:    -0.9646
    XY:    -0.0000     XZ:     1.8267     YZ:    -0.0000

  Mulliken Charges: (a.u.)
   Center  Symbol    Alpha    Beta     Spin     Total
       1     H     0.36465  0.36465  0.00000  0.27069
       2     C     3.08501  3.08501  0.00000 -0.17002
       3     C     3.10838  3.10838  0.00000 -0.21676
       4     C     2.92198  2.92198  0.00000  0.15605
       5     H     0.38849  0.38849  0.00000  0.22303
       6     C     3.08611  3.08611  0.00000 -0.17221
       7     N     3.24208  3.24208  0.00000  0.51585
       8     C     3.08501  3.08501  0.00000 -0.17002
       9     H     0.38889  0.38889  0.00000  0.22223
      10     C     3.10838  3.10838  0.00000 -0.21676
      11     O     4.23395  4.23395  0.00000 -0.46790
      12     O     4.23395  4.23395  0.00000 -0.46790
      13     H     0.36465  0.36465  0.00000  0.27069
      14     H     0.38849  0.38849  0.00000  0.22303

   Total alpha = 32.00000, Total beta = 32.00000, Total charge =  0.00000


*** PSI4 exiting successfully. Buy a developer a beer!
