
    -----------------------------------------------------------------------
          Psi4: An Open-Source Ab Initio Electronic Structure Package
                               Psi4 1.1 release

                         Git: Rev {HEAD} add49b9 


    R. M. Parrish, L. A. Burns, D. G. A. Smith, A. C. Simmonett,
    A. E. DePrince III, E. G. Hohenstein, U. Bozkaya, A. Yu. Sokolov,
    R. Di Remigio, R. M. Richard, J. F. Gonthier, A. M. James,
    H. R. McAlexander, A. Kumar, M. Saitow, X. Wang, B. P. Pritchard,
    P. Verma, H. F. Schaefer III, K. Patkowski, R. A. King, E. F. Valeev,
    F. A. Evangelista, J. M. Turney, T. D. Crawford, and C. D. Sherrill,
    J. Chem. Theory Comput. in press (2017).
    (doi: 10.1021/acs.jctc.7b00174)

    -----------------------------------------------------------------------


    Psi4 started on: Tuesday, 12 December 2017 12:40PM

    Process ID:   5359
    PSIDATADIR: /shared/raimis/opt/miniconda/envs/htmd/share/psi4
    Memory:     500.0 MiB
    Threads:    1
    
  ==> Input File <==

--------------------------------------------------------------------------
set_num_threads(1)
set_memory(4203741184)

set { reference rks }
set { basis cc-pVDZ }

molecule MOL {
    0 1
    noreorient
    nocom
    symmetry c1
    O    1.014300  -0.002300   0.060500
    O    2.462400  -0.107500  -0.002400
    H    0.821200  -0.823600  -0.430600
    H    2.614613   0.730084  -0.480019
}

set optking { frozen_dihedral = (" 3 1 2 4 ") }

energy, wfn = energy('B3LYP-D3', return_wfn=True)

import os
os.chdir(os.environ['HTMD_PSI4_WORKDIR'])

oeprop(wfn, 'DIPOLE', 'QUADRUPOLE', 'MULLIKEN_CHARGES')

with open('psi4out.xyz', 'w') as f:
    f.write('4 ' )
    f.write('%.12f\n' % energy)
    f.write(MOL.save_string_xyz())
--------------------------------------------------------------------------
  Threads set to 1 by Python driver.

  Memory set to   3.915 GiB by Python driver.

*** tstart() called on computer06
*** at Tue Dec 12 12:40:28 2017

   => Loading Basis Set <=

    Name: CC-PVDZ
    Role: ORBITAL
    Keyword: BASIS
    atoms 1-2 entry O          line   190 file /shared/raimis/opt/miniconda/envs/htmd/share/psi4/basis/cc-pvdz.gbs 
    atoms 3-4 entry H          line    20 file /shared/raimis/opt/miniconda/envs/htmd/share/psi4/basis/cc-pvdz.gbs 


         ---------------------------------------------------------
                                   SCF
            by Justin Turney, Rob Parrish, and Andy Simmonett
                              RKS Reference
                        1 Threads,   4009 MiB Core
         ---------------------------------------------------------

  ==> Geometry <==

    Molecular point group: c1
    Full point group: C1

    Geometry (in Angstrom), charge = 0, multiplicity = 1:

       Center              X                  Y                   Z               Mass       
    ------------   -----------------  -----------------  -----------------  -----------------
           O          1.014300000000    -0.002300000000     0.060500000000    15.994914619560
           O          2.462400000000    -0.107500000000    -0.002400000000    15.994914619560
           H          0.821200000000    -0.823600000000    -0.430600000000     1.007825032070
           H          2.614613000000     0.730084000000    -0.480019000000     1.007825032070

  Running in c1 symmetry.

  Rotational constants: A =      9.35322  B =      0.13867  C =      0.13770 [cm^-1]
  Rotational constants: A = 280402.47378  B =   4157.34307  C =   4128.26719 [MHz]
  Nuclear repulsion =   36.799361392551830

  Charge       = 0
  Multiplicity = 1
  Electrons    = 18
  Nalpha       = 9
  Nbeta        = 9

  ==> Algorithm <==

  SCF Algorithm Type is DF.
  DIIS enabled.
  MOM disabled.
  Fractional occupation disabled.
  Guess Type is SAD.
  Energy threshold   = 1.00e-06
  Density threshold  = 1.00e-06
  Integral threshold = 0.00e+00

  ==> Primary Basis <==

  Basis Set: CC-PVDZ
    Blend: CC-PVDZ
    Number of shells: 18
    Number of basis function: 38
    Number of Cartesian functions: 40
    Spherical Harmonics?: true
    Max angular momentum: 2

  ==> DFT Potential <==

   => B3LYP Composite Functional <= 

    B3LYP Hybrid-GGA Exchange-Correlation Functional (VWN1-RPA)

    P.J. Stephens et. al., J. Phys. Chem., 98, 11623-11627, 1994

    Points   =           5000
    Deriv    =              1
    GGA      =           TRUE
    Meta     =          FALSE

    X_LRC        =          FALSE
    X_Hybrid     =           TRUE
    X_Alpha      =   2.000000E-01
    X_Omega      =   0.000000E+00
    C_LRC        =          FALSE
    C_Hybrid     =          FALSE
    C_Alpha      =   0.000000E+00
    C_Omega      =   0.000000E+00

   => Exchange Functionals <=

    0.8000    B3_X
    0.2000      HF 

   => Correlation Functionals <=

    0.1900 VWN3RPA_C
    0.8100   LYP_C

   => Molecular Quadrature <=

    Radial Scheme    =       TREUTLER
    Pruning Scheme   =           FLAT
    Nuclear Scheme   =       TREUTLER

    BS radius alpha  =              1
    Pruning alpha    =              1
    Radial Points    =             75
    Spherical Points =            302
    Total Points     =          88342
    Total Blocks     =             87
    Max Points       =           4348
    Max Functions    =             38

   => -D3ZERO: Empirical Dispersion <=

    Grimme's -D3 (zero-damping) Dispersion Correction
    Grimme S.; Antony J.; Ehrlich S.; Krieg H. (2010), J. Chem. Phys., 132: 154104

        S6 =   1.000000E+00
        S8 =   1.703000E+00
       SR6 =   1.261000E+00
    ALPHA6 =   1.400000E+01

   => Loading Basis Set <=

    Name: (CC-PVDZ AUX)
    Role: JKFIT
    Keyword: DF_BASIS_SCF
    atoms 1-2 entry O          line   220 file /shared/raimis/opt/miniconda/envs/htmd/share/psi4/basis/cc-pvdz-jkfit.gbs 
    atoms 3-4 entry H          line    50 file /shared/raimis/opt/miniconda/envs/htmd/share/psi4/basis/cc-pvdz-jkfit.gbs 

  ==> Pre-Iterations <==

   -------------------------------------------------------
    Irrep   Nso     Nmo     Nalpha   Nbeta   Ndocc  Nsocc
   -------------------------------------------------------
     A         38      38       0       0       0       0
   -------------------------------------------------------
    Total      38      38       9       9       9       0
   -------------------------------------------------------

  ==> Integral Setup <==

  ==> DFJK: Density-Fitted J/K Matrices <==

    J tasked:                  Yes
    K tasked:                  Yes
    wK tasked:                  No
    OpenMP threads:              1
    Integrals threads:           1
    Memory (MB):              3006
    Algorithm:                Core
    Integral Cache:           NONE
    Schwarz Cutoff:          1E-12
    Fitting Condition:       1E-12

   => Auxiliary Basis Set <=

  Basis Set: (CC-PVDZ AUX)
    Blend: CC-PVDZ-JKFIT
    Number of shells: 66
    Number of basis function: 186
    Number of Cartesian functions: 212
    Spherical Harmonics?: true
    Max angular momentum: 3

  Minimum eigenvalue in the overlap matrix is 2.5208116679E-02.
  Using Symmetric Orthogonalization.

  SCF Guess: Superposition of Atomic Densities via on-the-fly atomic UHF.

  ==> Iterations <==

                           Total Energy        Delta E     RMS |[F,P]|

   @DF-RKS iter   0:  -151.54716922289481   -1.51547e+02   4.63618e-02 
   @DF-RKS iter   1:  -151.51752061423443    2.96486e-02   7.66559e-03 
   @DF-RKS iter   2:  -151.51525297455126    2.26764e-03   8.10725e-03 DIIS
   @DF-RKS iter   3:  -151.55007750732460   -3.48245e-02   7.14221e-04 DIIS
   @DF-RKS iter   4:  -151.55032663266039   -2.49125e-04   7.30510e-05 DIIS
   @DF-RKS iter   5:  -151.55032876716126   -2.13450e-06   3.95250e-05 DIIS
   @DF-RKS iter   6:  -151.55032943182806   -6.64667e-07   1.78981e-05 DIIS
   @DF-RKS iter   7:  -151.55032960431896   -1.72491e-07   1.06135e-06 DIIS
   @DF-RKS iter   8:  -151.55032960537457   -1.05561e-09   1.22525e-07 DIIS

  ==> Post-Iterations <==

    Orbital Energies (a.u.)
    -----------------------

    Doubly Occupied:                                                      

       1A    -19.187627     2A    -19.187586     3A     -1.111917  
       4A     -0.886412     5A     -0.510192     6A     -0.490445  
       7A     -0.411431     8A     -0.317211     9A     -0.265274  

    Virtual:                                                              

      10A      0.025119    11A      0.050218    12A      0.103934  
      13A      0.572895    14A      0.582462    15A      0.846610  
      16A      0.871099    17A      0.889227    18A      0.946010  
      19A      1.016126    20A      1.062165    21A      1.203260  
      22A      1.272315    23A      1.386572    24A      1.418873  
      25A      1.676954    26A      1.721936    27A      2.067406  
      28A      2.083635    29A      2.392698    30A      2.424834  
      31A      2.572143    32A      2.886403    33A      2.906237  
      34A      3.039493    35A      3.140017    36A      3.493929  
      37A      3.526283    38A      3.828235  

    Final Occupation by Irrep:
              A 
    DOCC [     9 ]

  Energy converged.

  @DF-RKS Final Energy:  -151.55032960537457

   => Energetics <=

    Nuclear Repulsion Energy =             36.7993613925518304
    One-Electron Energy =                -281.5787590746361957
    Two-Electron Energy =                 107.6917259853932762
    DFT Exchange-Correlation Energy =     -14.4623378086834471
    Empirical Dispersion Energy =          -0.0003201000000000
    PCM Polarization Energy =               0.0000000000000000
    EFP Energy =                            0.0000000000000000
    Total Energy =                       -151.5503296053745714



Properties will be evaluated at   0.000000,   0.000000,   0.000000 Bohr

Properties computed using the SCF density matrix

  Nuclear Dipole Moment: (a.u.)
     X:    59.0528      Y:    -1.8367      Z:    -0.8425

  Electronic Dipole Moment: (a.u.)
     X:   -59.0805      Y:     1.8477      Z:     0.1871

  Dipole Moment: (a.u.)
     X:    -0.0277      Y:     0.0110      Z:    -0.6554     Total:     0.6561

  Dipole Moment: (Debye)
     X:    -0.0703      Y:     0.0281      Z:    -1.6659     Total:     1.6676


*** tstop() called on computer06 at Tue Dec 12 12:40:33 2017
Module time:
	user time   =       4.34 seconds =       0.07 minutes
	system time =       0.04 seconds =       0.00 minutes
	total time  =          5 seconds =       0.08 minutes
Total time:
	user time   =       4.34 seconds =       0.07 minutes
	system time =       0.04 seconds =       0.00 minutes
	total time  =          5 seconds =       0.08 minutes


Properties will be evaluated at   0.000000,   0.000000,   0.000000 Bohr

Properties computed using the  density matrix

  Nuclear Dipole Moment: (a.u.)
     X:    59.0528      Y:    -1.8367      Z:    -0.8425

  Electronic Dipole Moment: (a.u.)
     X:   -59.0805      Y:     1.8477      Z:     0.1871

  Dipole Moment: (a.u.)
     X:    -0.0277      Y:     0.0110      Z:    -0.6554     Total:     0.6561

  Dipole Moment: (Debye)
     X:    -0.0703      Y:     0.0281      Z:    -1.6659     Total:     1.6676

  Quadrupole Moment: (Debye Ang)
    XX:   -11.1888     YY:    -9.3797     ZZ:   -11.3298
    XY:     2.9186     XZ:    -2.8616     YZ:     0.0027

  Traceless Quadrupole Moment: (Debye Ang)
    XX:    -0.5560     YY:     1.2531     ZZ:    -0.6971
    XY:     2.9186     XZ:    -2.8616     YZ:     0.0027

  Mulliken Charges: (a.u.)
   Center  Symbol    Alpha    Beta     Spin     Total
       1     O     4.09082  4.09082  0.00000 -0.18165
       2     O     4.09080  4.09080  0.00000 -0.18161
       3     H     0.40918  0.40918  0.00000  0.18165
       4     H     0.40920  0.40920  0.00000  0.18161

   Total alpha =  9.00000, Total beta =  9.00000, Total charge = -0.00000


*** Psi4 exiting successfully. Buy a developer a beer!
