    -----------------------------------------------------------------------
          Psi4: An Open-Source Ab Initio Electronic Structure Package
                              Psi4 (no tag) Driver

                          Git: Rev {detached?}  

    J. M. Turney, A. C. Simmonett, R. M. Parrish, E. G. Hohenstein,
    F. A. Evangelista, J. T. Fermann, B. J. Mintz, L. A. Burns, J. J. Wilke,
    M. L. Abrams, N. J. Russ, M. L. Leininger, C. L. Janssen, E. T. Seidl,
    W. D. Allen, H. F. Schaefer, R. A. King, E. F. Valeev, C. D. Sherrill,
    and T. D. Crawford, WIREs Comput. Mol. Sci. 2, 556-565 (2012)
    (doi: 10.1002/wcms.93)

                         Additional Contributions by
    A. E. DePrince, M. Saitow, U. Bozkaya, A. Yu. Sokolov
    -----------------------------------------------------------------------


    Psi4 started on: Tue Jul  5 16:31:05 2016

    Process ID:  28807
    PSI4DATADIR: /export131/home/mjharvey/miniconda3/share
    Memory level set to 256.000 MB

  ==> Input File <==

--------------------------------------------------------------------------
set {
	reference rhf
	basis 6-31G*
}


set_num_threads( 1 )
memory 2 gb

molecule MOL {
0 1

H	 -0.932178	 -0.034832	 -0.703161
N	 -0.626943	 -0.667432	 -0.000092
C	 -1.222009	 -1.983869	 0.039991
C	 0.325755	 -0.252874	 0.869779
H	 -2.076211	 -2.044463	 -0.626096
H	 -1.550551	 -2.174529	 1.048672
H	 -0.503134	 -2.744477	 -0.245887
C	 1.674978	 -0.919497	 0.690344
O	 0.127974	 0.574320	 1.716447
H	 2.068026	 -0.726742	 -0.302990
H	 2.359261	 -0.526889	 1.427442
H	 1.590945	 -1.994555	 0.814939

	symmetry c1
}
set optking {
	frozen_dihedral = ("
		4 2 3 5
	")
}

ee = energy('scf')
oeprop('DIPOLE', 'QUADRUPOLE', 'MULLIKEN_CHARGES')
f=open( 'psi4out.xyz', 'w' )
f.write( "12  " )
f.write( str(ee) + "\n" )
f.write( MOL.save_string_xyz() )
f.close()
--------------------------------------------------------------------------

  Memory set to   2.000 GiB by Python script.

*** tstart() called on cx1-3-2-3.cx1.hpc.ic.ac.uk
*** at Tue Jul  5 16:31:05 2016


         ---------------------------------------------------------
                                   SCF
            by Justin Turney, Rob Parrish, and Andy Simmonett
                              RHF Reference
                        1 Threads,   2000 MiB Core
         ---------------------------------------------------------

  ==> Geometry <==

    Molecular point group: c1
    Full point group: C1

    Geometry (in Angstrom), charge = 0, multiplicity = 1:

       Center              X                  Y                   Z               Mass       
    ------------   -----------------  -----------------  -----------------  -----------------
           H         -0.981130726171     0.627175073604    -1.361294594605     1.007825032070
           N         -0.675895726171    -0.005424926396    -0.658225594605    14.003074004780
           C         -1.270961726171    -1.321861926396    -0.618142594605    12.000000000000
           C          0.276802273829     0.409133073604     0.211645405395    12.000000000000
           H         -2.125163726171    -1.382455926396    -1.284229594605     1.007825032070
           H         -1.599503726171    -1.512521926396     0.390538405395     1.007825032070
           H         -0.552086726171    -2.082469926396    -0.904020594605     1.007825032070
           C          1.626025273829    -0.257489926396     0.032210405395    12.000000000000
           O          0.079021273829     1.236327073604     1.058313405395    15.994914619560
           H          2.019073273829    -0.064734926396    -0.961123594605     1.007825032070
           H          2.310308273829     0.135118073604     0.769308405395     1.007825032070
           H          1.541992273829    -1.332547926396     0.156805405395     1.007825032070

  Running in c1 symmetry.

  Rotational constants: A =      0.27696  B =      0.13730  C =      0.10380 [cm^-1]
  Rotational constants: A =   8303.00156  B =   4116.25003  C =   3111.71074 [MHz]
  Nuclear repulsion =  181.239345748884801

  Charge       = 0
  Multiplicity = 1
  Electrons    = 40
  Nalpha       = 20
  Nbeta        = 20

  ==> Algorithm <==

  SCF Algorithm Type is DF.
  DIIS enabled.
  MOM disabled.
  Fractional occupation disabled.
  Guess Type is CORE.
  Energy threshold   = 1.00e-06
  Density threshold  = 1.00e-06
  Integral threshold = 0.00e+00

  ==> Primary Basis <==

  Basis Set: 6-31G*
    Number of shells: 44
    Number of basis function: 89
    Number of Cartesian functions: 89
    Spherical Harmonics?: false
    Max angular momentum: 2

  ==> Pre-Iterations <==

   -------------------------------------------------------
    Irrep   Nso     Nmo     Nalpha   Nbeta   Ndocc  Nsocc
   -------------------------------------------------------
     A         89      89       0       0       0       0
   -------------------------------------------------------
    Total      89      89      20      20      20       0
   -------------------------------------------------------

 OEINTS: Overlap, kinetic, potential, dipole, and quadrupole integrals
         stored in file 35.

  ==> Integral Setup <==

  ==> DFJK: Density-Fitted J/K Matrices <==

    J tasked:                  Yes
    K tasked:                  Yes
    wK tasked:                  No
    OpenMP threads:              1
    Integrals threads:           1
    Memory (MB):              1430
    Algorithm:                Core
    Integral Cache:           NONE
    Schwarz Cutoff:          1E-12
    Fitting Condition:       1E-12

   => Auxiliary Basis Set <=

  Basis Set: 
    Number of shells: 183
    Number of basis function: 580
    Number of Cartesian functions: 580
    Spherical Harmonics?: false
    Max angular momentum: 3

  Minimum eigenvalue in the overlap matrix is 4.2275537248E-03.
  Using Symmetric Orthogonalization.
  SCF Guess: Core (One-Electron) Hamiltonian.

  ==> Iterations <==

                           Total Energy        Delta E     RMS |[F,P]|

   @DF-RHF iter   1:  -192.96387188879461   -1.92964e+02   8.98778e-02 
   @DF-RHF iter   2:  -185.79940145226729    7.16447e+00   6.01416e-02 DIIS
   @DF-RHF iter   3:  -212.31407648962491   -2.65147e+01   7.05869e-02 DIIS
   @DF-RHF iter   4:  -237.01410564149822   -2.47000e+01   3.73413e-02 DIIS
   @DF-RHF iter   5:  -245.44256264532314   -8.42846e+00   1.72978e-02 DIIS
   @DF-RHF iter   6:  -246.72536404400304   -1.28280e+00   7.01527e-03 DIIS
   @DF-RHF iter   7:  -246.92996924806997   -2.04605e-01   2.56267e-03 DIIS
   @DF-RHF iter   8:  -246.96302304610620   -3.30538e-02   9.97811e-04 DIIS
   @DF-RHF iter   9:  -246.96658921511923   -3.56617e-03   3.46220e-04 DIIS
   @DF-RHF iter  10:  -246.96741098244016   -8.21767e-04   1.23109e-04 DIIS
   @DF-RHF iter  11:  -246.96751640530860   -1.05423e-04   5.02859e-05 DIIS
   @DF-RHF iter  12:  -246.96754228942476   -2.58841e-05   1.51063e-05 DIIS
   @DF-RHF iter  13:  -246.96754518126053   -2.89184e-06   4.68551e-06 DIIS
   @DF-RHF iter  14:  -246.96754541087208   -2.29612e-07   1.48835e-06 DIIS
   @DF-RHF iter  15:  -246.96754543428315   -2.34111e-08   4.20108e-07 DIIS

  ==> Post-Iterations <==

    Orbital Energies (a.u.)
    -----------------------

    Doubly Occupied:                                                      

       1A    -20.543967     2A    -15.548704     3A    -11.346908  
       4A    -11.263922     5A    -11.223665     6A     -1.395919  
       7A     -1.221323     8A     -1.002701     9A     -0.942661  
      10A     -0.781572    11A     -0.680855    12A     -0.651953  
      13A     -0.642261    14A     -0.594046    15A     -0.578620  
      16A     -0.566568    17A     -0.549766    18A     -0.486938  
      19A     -0.423920    20A     -0.371673  

    Virtual:                                                              

      21A      0.164570    22A      0.223904    23A      0.259786  
      24A      0.280973    25A      0.308795    26A      0.313451  
      27A      0.336360    28A      0.349174    29A      0.391788  
      30A      0.413698    31A      0.522755    32A      0.594796  
      33A      0.708395    34A      0.738909    35A      0.755817  
      36A      0.784914    37A      0.823679    38A      0.855189  
      39A      0.870221    40A      0.939998    41A      0.974289  
      42A      1.028776    43A      1.060856    44A      1.110033  
      45A      1.123242    46A      1.141568    47A      1.158283  
      48A      1.173240    49A      1.197252    50A      1.211101  
      51A      1.223936    52A      1.257312    53A      1.285639  
      54A      1.323353    55A      1.350575    56A      1.375675  
      57A      1.531349    58A      1.659517    59A      1.737825  
      60A      1.764953    61A      1.879128    62A      1.962525  
      63A      2.066437    64A      2.113861    65A      2.129479  
      66A      2.165176    67A      2.188446    68A      2.253012  
      69A      2.329885    70A      2.381401    71A      2.426825  
      72A      2.456653    73A      2.525823    74A      2.567313  
      75A      2.662119    76A      2.684861    77A      2.735777  
      78A      2.797517    79A      2.967278    80A      3.042057  
      81A      3.128924    82A      3.252953    83A      3.361979  
      84A      3.454910    85A      4.346049    86A      4.447020  
      87A      4.625126    88A      4.695209    89A      4.888902  

    Final Occupation by Irrep:
              A 
    DOCC [    20 ]

  Energy converged.

  @DF-RHF Final Energy:  -246.96754543428315

   => Energetics <=

    Nuclear Repulsion Energy =            181.2393457488848014
    One-Electron Energy =                -694.7778688850540902
    Two-Electron Energy =                 266.5709777018865339
    DFT Exchange-Correlation Energy =       0.0000000000000000
    Empirical Dispersion Energy =           0.0000000000000000
    PCM Polarization Energy =               0.0000000000000000
    EFP Energy =                            0.0000000000000000
    Total Energy =                       -246.9675454342827265

    Alert: EFP and PCM quantities not currently incorporated into SCF psivars.

Properties will be evaluated at   0.000000,   0.000000,   0.000000 Bohr
  ==> Properties <==


Properties computed using the SCF density matrix

  Nuclear Dipole Moment: (a.u.)
     X:     0.5775      Y:    -5.2555      Z:    -2.9873

  Electronic Dipole Moment: (a.u.)
     X:    -0.5907      Y:     4.3461      Z:     1.9202

  Dipole Moment: (a.u.)
     X:    -0.0133      Y:    -0.9095      Z:    -1.0671     Total:     1.4021

  Dipole Moment: (Debye)
     X:    -0.0337      Y:    -2.3117      Z:    -2.7123     Total:     3.5639


  Saving occupied orbitals to File 180.

*** tstop() called on cx1-3-2-3.cx1.hpc.ic.ac.uk at Tue Jul  5 16:31:09 2016
Module time:
	user time   =       3.87 seconds =       0.06 minutes
	system time =       0.02 seconds =       0.00 minutes
	total time  =          4 seconds =       0.07 minutes
Total time:
	user time   =       3.87 seconds =       0.06 minutes
	system time =       0.02 seconds =       0.00 minutes
	total time  =          4 seconds =       0.07 minutes


Properties will be evaluated at   0.000000,   0.000000,   0.000000 Bohr

Properties computed using the  density matrix

  Nuclear Dipole Moment: (a.u.)
     X:     0.5775      Y:    -5.2555      Z:    -2.9873

  Electronic Dipole Moment: (a.u.)
     X:    -0.5907      Y:     4.3461      Z:     1.9202

  Dipole Moment: (a.u.)
     X:    -0.0133      Y:    -0.9095      Z:    -1.0671     Total:     1.4021

  Dipole Moment: (Debye)
     X:    -0.0337      Y:    -2.3117      Z:    -2.7123     Total:     3.5639

  Quadrupole Moment: (Debye Ang)
    XX:   -28.7143     YY:   -32.4123     ZZ:   -31.5834
    XY:     0.8389     XZ:     1.6916     YZ:    -4.0374

  Traceless Quadrupole Moment: (Debye Ang)
    XX:     2.1891     YY:    -1.5090     ZZ:    -0.6801
    XY:     0.8389     XZ:     1.6916     YZ:    -4.0374

  Mulliken Charges: (a.u.)
   Center  Symbol    Alpha    Beta     Spin     Total
       1     H     0.30580  0.30580  0.00000  0.38840
       2     N     3.90425  3.90425  0.00000 -0.80851
       3     C     3.13649  3.13649  0.00000 -0.27298
       4     C     2.65788  2.65788  0.00000  0.68424
       5     H     0.40853  0.40853  0.00000  0.18293
       6     H     0.40993  0.40993  0.00000  0.18013
       7     H     0.42133  0.42133  0.00000  0.15733
       8     C     3.28139  3.28139  0.00000 -0.56278
       9     O     4.25637  4.25637  0.00000 -0.51275
      10     H     0.40759  0.40759  0.00000  0.18481
      11     H     0.40069  0.40069  0.00000  0.19862
      12     H     0.40973  0.40973  0.00000  0.18054

   Total alpha = 20.00000, Total beta = 20.00000, Total charge = -0.00000


*** PSI4 exiting successfully. Buy a developer a beer!
