    -----------------------------------------------------------------------
          Psi4: An Open-Source Ab Initio Electronic Structure Package
                              Psi4 (no tag) Driver

                          Git: Rev {detached?}  

    J. M. Turney, A. C. Simmonett, R. M. Parrish, E. G. Hohenstein,
    F. A. Evangelista, J. T. Fermann, B. J. Mintz, L. A. Burns, J. J. Wilke,
    M. L. Abrams, N. J. Russ, M. L. Leininger, C. L. Janssen, E. T. Seidl,
    W. D. Allen, H. F. Schaefer, R. A. King, E. F. Valeev, C. D. Sherrill,
    and T. D. Crawford, WIREs Comput. Mol. Sci. 2, 556-565 (2012)
    (doi: 10.1002/wcms.93)

                         Additional Contributions by
    A. E. DePrince, M. Saitow, U. Bozkaya, A. Yu. Sokolov
    -----------------------------------------------------------------------


    Psi4 started on: Tue Jul  5 17:20:51 2016

    Process ID:  20718
    PSI4DATADIR: /export131/home/mjharvey/miniconda3/share
    Memory level set to 256.000 MB

  ==> Input File <==

--------------------------------------------------------------------------
set {
	reference rhf
	basis 6-31G*
}


set_num_threads( 1 )
memory 2 gb

molecule MOL {
0 1

H	 4.986230	 0.282060	 1.096872
C	 4.393306	 -0.152878	 0.298253
C	 2.920667	 -0.251188	 0.694290
H	 4.518720	 0.469020	 -0.583141
H	 4.807426	 -1.132272	 0.074442
C	 2.056426	 -0.867303	 -0.408118
H	 2.547640	 0.738884	 0.935557
H	 2.830937	 -0.850579	 1.598929
C	 2.638734	 -2.149900	 -1.002365
H	 1.066195	 -1.077091	 -0.019433
H	 1.934925	 -0.143278	 -1.210655
C	 2.588179	 -3.351704	 -0.070510
H	 2.081339	 -2.426955	 -1.895853
H	 3.663790	 -1.995177	 -1.331754
C	 3.475324	 -4.538016	 -0.405696
O	 1.866472	 -3.375929	 0.880783
C	 3.142513	 -5.197708	 -1.752249
H	 3.364338	 -5.254105	 0.399670
H	 4.511112	 -4.203728	 -0.414662
C	 3.906992	 -6.506058	 -1.962969
H	 2.073565	 -5.394231	 -1.800676
H	 3.371148	 -4.517137	 -2.568350
C	 3.584233	 -7.172245	 -3.299729
H	 3.675183	 -7.191428	 -1.151430
H	 4.975620	 -6.311267	 -1.903941
H	 2.526789	 -7.408725	 -3.374670
H	 3.837980	 -6.523738	 -4.133494
H	 4.139105	 -8.097216	 -3.419829

	symmetry c1
}
set optking {
	frozen_dihedral = ("
		10 6 3 2,
		16 12 15 17
	")
}

ee = energy('scf')
oeprop('DIPOLE', 'QUADRUPOLE', 'MULLIKEN_CHARGES')
f=open( 'psi4out.xyz', 'w' )
f.write( "28  " )
f.write( str(ee) + "\n" )
f.write( MOL.save_string_xyz() )
f.close()
--------------------------------------------------------------------------

  Memory set to   2.000 GiB by Python script.

*** tstart() called on cx1-3-4-4.cx1.hpc.ic.ac.uk
*** at Tue Jul  5 17:20:51 2016


         ---------------------------------------------------------
                                   SCF
            by Justin Turney, Rob Parrish, and Andy Simmonett
                              RHF Reference
                        1 Threads,   2000 MiB Core
         ---------------------------------------------------------

  ==> Geometry <==

    Molecular point group: c1
    Full point group: C1

    Geometry (in Angstrom), charge = 0, multiplicity = 1:

       Center              X                  Y                   Z               Mass       
    ------------   -----------------  -----------------  -----------------  -----------------
           H          1.920715642241     3.643327128284     1.805192365602     1.007825032070
           C          1.327791642241     3.208389128284     1.006573365602    12.000000000000
           C         -0.144847357759     3.110079128284     1.402610365602    12.000000000000
           H          1.453205642241     3.830287128284     0.125179365602     1.007825032070
           H          1.741911642241     2.228995128284     0.782762365602     1.007825032070
           C         -1.009088357759     2.493964128284     0.300202365602    12.000000000000
           H         -0.517874357759     4.100151128284     1.643877365602     1.007825032070
           H         -0.234577357759     2.510688128284     2.307249365602     1.007825032070
           C         -0.426780357759     1.211367128284    -0.294044634398    12.000000000000
           H         -1.999319357759     2.284176128284     0.688887365602     1.007825032070
           H         -1.130589357759     3.217989128284    -0.502334634398     1.007825032070
           C         -0.477335357759     0.009563128284     0.637810365602    12.000000000000
           H         -0.984175357759     0.934312128284    -1.187532634398     1.007825032070
           H          0.598275642241     1.366090128284    -0.623433634398     1.007825032070
           C          0.409809642241    -1.176748871716     0.302624365602    12.000000000000
           O         -1.199042357759    -0.014661871716     1.589103365602    15.994914619560
           C          0.076998642241    -1.836440871716    -1.043928634398    12.000000000000
           H          0.298823642241    -1.892837871716     1.107990365602     1.007825032070
           H          1.445597642241    -0.842460871716     0.293658365602     1.007825032070
           C          0.841477642241    -3.144790871716    -1.254648634398    12.000000000000
           H         -0.991949357759    -2.032963871716    -1.092355634398     1.007825032070
           H          0.305633642241    -1.155869871716    -1.860029634398     1.007825032070
           C          0.518718642241    -3.810977871716    -2.591408634398    12.000000000000
           H          0.609668642241    -3.830160871716    -0.443109634398     1.007825032070
           H          1.910105642241    -2.949999871716    -1.195620634398     1.007825032070
           H         -0.538725357759    -4.047457871716    -2.666349634398     1.007825032070
           H          0.772465642241    -3.162470871716    -3.425173634398     1.007825032070
           H          1.073590642241    -4.735948871716    -2.711508634398     1.007825032070

  Running in c1 symmetry.

  Rotational constants: A =      0.09180  B =      0.01574  C =      0.01510 [cm^-1]
  Rotational constants: A =   2752.07086  B =    471.82546  C =    452.79343 [MHz]
  Nuclear repulsion =  540.840149514122800

  Charge       = 0
  Multiplicity = 1
  Electrons    = 80
  Nalpha       = 40
  Nbeta        = 40

  ==> Algorithm <==

  SCF Algorithm Type is DF.
  DIIS enabled.
  MOM disabled.
  Fractional occupation disabled.
  Guess Type is CORE.
  Energy threshold   = 1.00e-06
  Density threshold  = 1.00e-06
  Integral threshold = 0.00e+00

  ==> Primary Basis <==

  Basis Set: 6-31G*
    Number of shells: 96
    Number of basis function: 186
    Number of Cartesian functions: 186
    Spherical Harmonics?: false
    Max angular momentum: 2

  ==> Pre-Iterations <==

   -------------------------------------------------------
    Irrep   Nso     Nmo     Nalpha   Nbeta   Ndocc  Nsocc
   -------------------------------------------------------
     A        186     186       0       0       0       0
   -------------------------------------------------------
    Total     186     186      40      40      40       0
   -------------------------------------------------------

 OEINTS: Overlap, kinetic, potential, dipole, and quadrupole integrals
         stored in file 35.

  ==> Integral Setup <==

  ==> DFJK: Density-Fitted J/K Matrices <==

    J tasked:                  Yes
    K tasked:                  Yes
    wK tasked:                  No
    OpenMP threads:              1
    Integrals threads:           1
    Memory (MB):              1430
    Algorithm:                Core
    Integral Cache:           NONE
    Schwarz Cutoff:          1E-12
    Fitting Condition:       1E-12

   => Auxiliary Basis Set <=

  Basis Set: 
    Number of shells: 402
    Number of basis function: 1260
    Number of Cartesian functions: 1260
    Spherical Harmonics?: false
    Max angular momentum: 3

  Minimum eigenvalue in the overlap matrix is 2.9403398622E-03.
  Using Symmetric Orthogonalization.
  SCF Guess: Core (One-Electron) Hamiltonian.

  ==> Iterations <==

                           Total Energy        Delta E     RMS |[F,P]|

   @DF-RHF iter   1:  -223.88436067691453   -2.23884e+02   7.13749e-02 
   @DF-RHF iter   2:   -84.84485762192935    1.39040e+02   7.63384e-02 DIIS
   @DF-RHF iter   3:  -230.44994488973430   -1.45605e+02   5.84491e-02 DIIS
   @DF-RHF iter   4:  -276.02124638498140   -4.55713e+01   5.84594e-02 DIIS
   @DF-RHF iter   5:  -399.51801841893496   -1.23497e+02   2.93787e-02 DIIS
   @DF-RHF iter   6:  -372.04027378548574    2.74777e+01   4.22415e-02 DIIS
   @DF-RHF iter   7:  -424.99136904099498   -5.29511e+01   7.70472e-03 DIIS
   @DF-RHF iter   8:  -426.00172432225338   -1.01036e+00   2.97711e-03 DIIS
   @DF-RHF iter   9:  -426.12922045247387   -1.27496e-01   1.41160e-03 DIIS
   @DF-RHF iter  10:  -426.16178732998344   -3.25669e-02   2.83641e-04 DIIS
   @DF-RHF iter  11:  -426.16420785770163   -2.42053e-03   8.52475e-05 DIIS
   @DF-RHF iter  12:  -426.16444342720820   -2.35570e-04   2.79313e-05 DIIS
   @DF-RHF iter  13:  -426.16446831073245   -2.48835e-05   7.99830e-06 DIIS
   @DF-RHF iter  14:  -426.16447065432783   -2.34360e-06   2.14633e-06 DIIS
   @DF-RHF iter  15:  -426.16447085771881   -2.03391e-07   5.71719e-07 DIIS

  ==> Post-Iterations <==

    Orbital Energies (a.u.)
    -----------------------

    Doubly Occupied:                                                      

       1A    -20.548105     2A    -11.321874     3A    -11.232398  
       4A    -11.228858     5A    -11.228158     6A    -11.225999  
       7A    -11.216358     8A    -11.216202     9A    -11.212457  
      10A    -11.210122    11A     -1.393103    12A     -1.095778  
      13A     -1.080286    14A     -1.021199    15A     -0.987223  
      16A     -0.912015    17A     -0.881392    18A     -0.808931  
      19A     -0.793497    20A     -0.718409    21A     -0.667492  
      22A     -0.651758    23A     -0.643688    24A     -0.620842  
      25A     -0.608809    26A     -0.597240    27A     -0.577728  
      28A     -0.553826    29A     -0.544490    30A     -0.539530  
      31A     -0.528857    32A     -0.507550    33A     -0.500868  
      34A     -0.484463    35A     -0.478905    36A     -0.474678  
      37A     -0.467771    38A     -0.463290    39A     -0.458655  
      40A     -0.391559  

    Virtual:                                                              

      41A      0.168345    42A      0.211239    43A      0.232690  
      44A      0.253562    45A      0.267880    46A      0.271200  
      47A      0.285368    48A      0.295241    49A      0.306642  
      50A      0.308439    51A      0.317216    52A      0.322109  
      53A      0.334343    54A      0.337946    55A      0.340104  
      56A      0.346467    57A      0.354828    58A      0.368560  
      59A      0.371330    60A      0.385698    61A      0.407577  
      62A      0.409184    63A      0.436753    64A      0.440062  
      65A      0.450862    66A      0.470649    67A      0.526025  
      68A      0.545055    69A      0.697777    70A      0.705061  
      71A      0.716625    72A      0.731254    73A      0.737732  
      74A      0.744306    75A      0.749770    76A      0.766462  
      77A      0.807778    78A      0.820533    79A      0.853446  
      80A      0.861137    81A      0.883109    82A      0.908691  
      83A      0.936526    84A      0.940102    85A      0.948684  
      86A      0.984247    87A      0.985241    88A      1.010209  
      89A      1.016283    90A      1.057124    91A      1.080541  
      92A      1.088509    93A      1.107482    94A      1.114186  
      95A      1.115066    96A      1.138770    97A      1.148979  
      98A      1.154490    99A      1.158413   100A      1.169931  
     101A      1.178844   102A      1.188589   103A      1.191866  
     104A      1.199600   105A      1.205139   106A      1.213162  
     107A      1.223497   108A      1.233549   109A      1.237317  
     110A      1.254226   111A      1.258273   112A      1.277572  
     113A      1.299148   114A      1.304865   115A      1.317141  
     116A      1.413807   117A      1.419525   118A      1.455133  
     119A      1.484697   120A      1.573805   121A      1.644177  
     122A      1.668383   123A      1.693689   124A      1.741899  
     125A      1.762772   126A      1.793460   127A      1.809270  
     128A      1.815106   129A      1.869281   130A      1.932883  
     131A      1.977615   132A      2.004758   133A      2.021999  
     134A      2.075464   135A      2.110337   136A      2.121228  
     137A      2.155092   138A      2.161866   139A      2.189191  
     140A      2.229009   141A      2.240406   142A      2.243502  
     143A      2.268428   144A      2.280633   145A      2.296117  
     146A      2.304683   147A      2.330378   148A      2.370889  
     149A      2.377319   150A      2.396558   151A      2.411619  
     152A      2.486595   153A      2.516240   154A      2.574271  
     155A      2.607769   156A      2.608337   157A      2.656822  
     158A      2.680034   159A      2.686971   160A      2.714464  
     161A      2.721234   162A      2.741550   163A      2.765777  
     164A      2.779376   165A      2.802635   166A      2.877346  
     167A      2.917916   168A      2.939857   169A      2.958439  
     170A      2.987229   171A      3.050051   172A      3.088412  
     173A      3.109991   174A      3.210853   175A      3.390666  
     176A      3.416291   177A      4.472505   178A      4.544976  
     179A      4.589544   180A      4.636936   181A      4.724442  
     182A      4.794772   183A      4.841614   184A      4.907922  
     185A      4.979216   186A      5.025165  

    Final Occupation by Irrep:
              A 
    DOCC [    40 ]

  Energy converged.

  @DF-RHF Final Energy:  -426.16447085771881

   => Energetics <=

    Nuclear Repulsion Energy =            540.8401495141227997
    One-Electron Energy =               -1649.8205243506545230
    Two-Electron Energy =                 682.8159039788132532
    DFT Exchange-Correlation Energy =       0.0000000000000000
    Empirical Dispersion Energy =           0.0000000000000000
    PCM Polarization Energy =               0.0000000000000000
    EFP Energy =                            0.0000000000000000
    Total Energy =                       -426.1644708577183565

    Alert: EFP and PCM quantities not currently incorporated into SCF psivars.

Properties will be evaluated at   0.000000,   0.000000,   0.000000 Bohr
  ==> Properties <==


Properties computed using the SCF density matrix

  Nuclear Dipole Moment: (a.u.)
     X:     5.3685      Y:    -0.5008      Z:    -6.5103

  Electronic Dipole Moment: (a.u.)
     X:    -4.7229      Y:     0.4465      Z:     5.5673

  Dipole Moment: (a.u.)
     X:     0.6456      Y:    -0.0543      Z:    -0.9430     Total:     1.1441

  Dipole Moment: (Debye)
     X:     1.6410      Y:    -0.1381      Z:    -2.3968     Total:     2.9080


  Saving occupied orbitals to File 180.

*** tstop() called on cx1-3-4-4.cx1.hpc.ic.ac.uk at Tue Jul  5 17:21:28 2016
Module time:
	user time   =      36.56 seconds =       0.61 minutes
	system time =       0.34 seconds =       0.01 minutes
	total time  =         37 seconds =       0.62 minutes
Total time:
	user time   =      36.56 seconds =       0.61 minutes
	system time =       0.34 seconds =       0.01 minutes
	total time  =         37 seconds =       0.62 minutes


Properties will be evaluated at   0.000000,   0.000000,   0.000000 Bohr

Properties computed using the  density matrix

  Nuclear Dipole Moment: (a.u.)
     X:     5.3685      Y:    -0.5008      Z:    -6.5103

  Electronic Dipole Moment: (a.u.)
     X:    -4.7229      Y:     0.4465      Z:     5.5673

  Dipole Moment: (a.u.)
     X:     0.6456      Y:    -0.0543      Z:    -0.9430     Total:     1.1441

  Dipole Moment: (Debye)
     X:     1.6410      Y:    -0.1381      Z:    -2.3968     Total:     2.9080

  Quadrupole Moment: (Debye Ang)
    XX:   -67.4614     YY:   -62.5439     ZZ:   -69.7502
    XY:    -0.7760     XZ:     3.8090     YZ:     0.4673

  Traceless Quadrupole Moment: (Debye Ang)
    XX:    -0.8763     YY:     4.0413     ZZ:    -3.1650
    XY:    -0.7760     XZ:     3.8090     YZ:     0.4673

  Mulliken Charges: (a.u.)
   Center  Symbol    Alpha    Beta     Spin     Total
       1     H     0.41672  0.41672  0.00000  0.16657
       2     C     3.24330  3.24330  0.00000 -0.48660
       3     C     3.15820  3.15820  0.00000 -0.31640
       4     H     0.42274  0.42274  0.00000  0.15452
       5     H     0.42618  0.42618  0.00000  0.14763
       6     C     3.14996  3.14996  0.00000 -0.29993
       7     H     0.41935  0.41935  0.00000  0.16129
       8     H     0.40910  0.40910  0.00000  0.18181
       9     C     3.21819  3.21819  0.00000 -0.43639
      10     H     0.40464  0.40464  0.00000  0.19073
      11     H     0.42198  0.42198  0.00000  0.15604
      12     C     2.73097  2.73097  0.00000  0.53805
      13     H     0.40241  0.40241  0.00000  0.19518
      14     H     0.40966  0.40966  0.00000  0.18067
      15     C     3.20159  3.20159  0.00000 -0.40317
      16     O     4.26654  4.26654  0.00000 -0.53308
      17     C     3.16354  3.16354  0.00000 -0.32709
      18     H     0.39980  0.39980  0.00000  0.20041
      19     H     0.41299  0.41299  0.00000  0.17402
      20     C     3.15192  3.15192  0.00000 -0.30383
      21     H     0.41418  0.41418  0.00000  0.17163
      22     H     0.41847  0.41847  0.00000  0.16307
      23     C     3.24037  3.24037  0.00000 -0.48074
      24     H     0.41818  0.41818  0.00000  0.16363
      25     H     0.42134  0.42134  0.00000  0.15733
      26     H     0.41962  0.41962  0.00000  0.16076
      27     H     0.42120  0.42120  0.00000  0.15760
      28     H     0.41686  0.41686  0.00000  0.16629

   Total alpha = 40.00000, Total beta = 40.00000, Total charge = -0.00000


*** PSI4 exiting successfully. Buy a developer a beer!
