    -----------------------------------------------------------------------
          Psi4: An Open-Source Ab Initio Electronic Structure Package
                              Psi4 (no tag) Driver

                          Git: Rev {detached?}  

    J. M. Turney, A. C. Simmonett, R. M. Parrish, E. G. Hohenstein,
    F. A. Evangelista, J. T. Fermann, B. J. Mintz, L. A. Burns, J. J. Wilke,
    M. L. Abrams, N. J. Russ, M. L. Leininger, C. L. Janssen, E. T. Seidl,
    W. D. Allen, H. F. Schaefer, R. A. King, E. F. Valeev, C. D. Sherrill,
    and T. D. Crawford, WIREs Comput. Mol. Sci. 2, 556-565 (2012)
    (doi: 10.1002/wcms.93)

                         Additional Contributions by
    A. E. DePrince, M. Saitow, U. Bozkaya, A. Yu. Sokolov
    -----------------------------------------------------------------------


    Psi4 started on: Tue Jul  5 16:40:49 2016

    Process ID:   2381
    PSI4DATADIR: /export131/home/mjharvey/miniconda3/share
    Memory level set to 256.000 MB

  ==> Input File <==

--------------------------------------------------------------------------
set {
	reference rhf
	basis 6-31G*
}


set_num_threads( 1 )
memory 2 gb

molecule MOL {
0 1

H	 3.083879	 -1.346558	 0.395444
O	 2.172668	 -1.603300	 0.415122
C	 1.365383	 -0.540424	 0.207814
C	 0.292228	 -0.247582	 1.039610
C	 1.639100	 0.270434	 -0.879852
H	 0.080944	 -0.879899	 1.885524
C	 -0.505764	 0.854822	 0.783512
H	 2.467715	 0.045366	 -1.523138
C	 0.835278	 1.372145	 -1.129173
H	 -1.333425	 1.071330	 1.434266
C	 -0.239526	 1.670639	 -0.301242
C	 1.123737	 2.247479	 -2.295986
H	 -0.858060	 2.527438	 -0.502031
O	 2.107507	 2.182038	 -2.961161
H	 0.349148	 2.987173	 -2.519847

	symmetry c1
}
set optking {
	frozen_dihedral = ("
		11 9 12 14
	")
}

ee = energy('scf')
oeprop('DIPOLE', 'QUADRUPOLE', 'MULLIKEN_CHARGES')
f=open( 'psi4out.xyz', 'w' )
f.write( "15  " )
f.write( str(ee) + "\n" )
f.write( MOL.save_string_xyz() )
f.close()
--------------------------------------------------------------------------

  Memory set to   2.000 GiB by Python script.

*** tstart() called on cx1-3-16-3.cx1.hpc.ic.ac.uk
*** at Tue Jul  5 16:40:50 2016


         ---------------------------------------------------------
                                   SCF
            by Justin Turney, Rob Parrish, and Andy Simmonett
                              RHF Reference
                        1 Threads,   2000 MiB Core
         ---------------------------------------------------------

  ==> Geometry <==

    Molecular point group: c1
    Full point group: C1

    Geometry (in Angstrom), charge = 0, multiplicity = 1:

       Center              X                  Y                   Z               Mass       
    ------------   -----------------  -----------------  -----------------  -----------------
           H          2.048075484740    -2.012147008232     0.989230199795     1.007825032070
           O          1.136864484740    -2.268889008232     1.008908199795    15.994914619560
           C          0.329579484740    -1.206013008232     0.801600199795    12.000000000000
           C         -0.743575515260    -0.913171008232     1.633396199795    12.000000000000
           C          0.603296484740    -0.395155008232    -0.286065800205    12.000000000000
           H         -0.954859515260    -1.545488008232     2.479310199795     1.007825032070
           C         -1.541567515260     0.189232991768     1.377298199795    12.000000000000
           H          1.431911484740    -0.620223008232    -0.929351800205     1.007825032070
           C         -0.200525515260     0.706555991768    -0.535386800205    12.000000000000
           H         -2.369228515260     0.405740991768     2.028052199795     1.007825032070
           C         -1.275329515260     1.005049991768     0.292544199795    12.000000000000
           C          0.087933484740     1.581889991768    -1.702199800205    12.000000000000
           H         -1.893863515260     1.861848991768     0.091755199795     1.007825032070
           O          1.071703484740     1.516448991768    -2.367374800205    15.994914619560
           H         -0.686655515260     2.321583991768    -1.926060800205     1.007825032070

  Running in c1 symmetry.

  Rotational constants: A =      0.09769  B =      0.04406  C =      0.03044 [cm^-1]
  Rotational constants: A =   2928.64058  B =   1320.93288  C =    912.53074 [MHz]
  Nuclear repulsion =  403.354099917522831

  Charge       = 0
  Multiplicity = 1
  Electrons    = 64
  Nalpha       = 32
  Nbeta        = 32

  ==> Algorithm <==

  SCF Algorithm Type is DF.
  DIIS enabled.
  MOM disabled.
  Fractional occupation disabled.
  Guess Type is CORE.
  Energy threshold   = 1.00e-06
  Density threshold  = 1.00e-06
  Integral threshold = 0.00e+00

  ==> Primary Basis <==

  Basis Set: 6-31G*
    Number of shells: 66
    Number of basis function: 147
    Number of Cartesian functions: 147
    Spherical Harmonics?: false
    Max angular momentum: 2

  ==> Pre-Iterations <==

   -------------------------------------------------------
    Irrep   Nso     Nmo     Nalpha   Nbeta   Ndocc  Nsocc
   -------------------------------------------------------
     A        147     147       0       0       0       0
   -------------------------------------------------------
    Total     147     147      32      32      32       0
   -------------------------------------------------------

 OEINTS: Overlap, kinetic, potential, dipole, and quadrupole integrals
         stored in file 35.

  ==> Integral Setup <==

  ==> DFJK: Density-Fitted J/K Matrices <==

    J tasked:                  Yes
    K tasked:                  Yes
    wK tasked:                  No
    OpenMP threads:              1
    Integrals threads:           1
    Memory (MB):              1430
    Algorithm:                Core
    Integral Cache:           NONE
    Schwarz Cutoff:          1E-12
    Fitting Condition:       1E-12

   => Auxiliary Basis Set <=

  Basis Set: 
    Number of shells: 270
    Number of basis function: 879
    Number of Cartesian functions: 879
    Spherical Harmonics?: false
    Max angular momentum: 3

  Minimum eigenvalue in the overlap matrix is 4.1616142117E-04.
  Using Symmetric Orthogonalization.
  SCF Guess: Core (One-Electron) Hamiltonian.

  ==> Iterations <==

                           Total Energy        Delta E     RMS |[F,P]|

   @DF-RHF iter   1:  -346.32539944234122   -3.46325e+02   6.08933e-02 
   @DF-RHF iter   2:  -329.34623605215063    1.69792e+01   5.04578e-02 DIIS
   @DF-RHF iter   3:  -320.17839168899116    9.16784e+00   5.99899e-02 DIIS
   @DF-RHF iter   4:  -412.66179170312535   -9.24834e+01   1.96450e-02 DIIS
   @DF-RHF iter   5:  -412.98484671486801   -3.23055e-01   1.82345e-02 DIIS
   @DF-RHF iter   6:  -418.14035049568827   -5.15550e+00   3.40488e-03 DIIS
   @DF-RHF iter   7:  -418.24842666354016   -1.08076e-01   1.77531e-03 DIIS
   @DF-RHF iter   8:  -418.27940058894671   -3.09739e-02   3.98626e-04 DIIS
   @DF-RHF iter   9:  -418.28233585332123   -2.93526e-03   1.38910e-04 DIIS
   @DF-RHF iter  10:  -418.28268241369278   -3.46560e-04   7.56516e-05 DIIS
   @DF-RHF iter  11:  -418.28277271763545   -9.03039e-05   3.47031e-05 DIIS
   @DF-RHF iter  12:  -418.28280487604763   -3.21584e-05   1.00753e-05 DIIS
   @DF-RHF iter  13:  -418.28280896820104   -4.09215e-06   3.95344e-06 DIIS
   @DF-RHF iter  14:  -418.28280973932726   -7.71126e-07   1.89758e-06 DIIS
   @DF-RHF iter  15:  -418.28281000049515   -2.61168e-07   6.22598e-07 DIIS

  ==> Post-Iterations <==

    Orbital Energies (a.u.)
    -----------------------

    Doubly Occupied:                                                      

       1A    -20.592251     2A    -20.566465     3A    -11.334528  
       4A    -11.307729     5A    -11.252400     6A    -11.251479  
       7A    -11.249625     8A    -11.247943     9A    -11.243204  
      10A     -1.415160    11A     -1.407358    12A     -1.169803  
      13A     -1.049066    14A     -1.025588    15A     -0.898491  
      16A     -0.850692    17A     -0.798316    18A     -0.750515  
      19A     -0.701016    20A     -0.673380    21A     -0.658508  
      22A     -0.632010    23A     -0.618408    24A     -0.607501  
      25A     -0.559946    26A     -0.548307    27A     -0.531405  
      28A     -0.507903    29A     -0.486784    30A     -0.424350  
      31A     -0.352865    32A     -0.334069  

    Virtual:                                                              

      33A      0.082925    34A      0.137079    35A      0.220610  
      36A      0.225144    37A      0.237735    38A      0.268669  
      39A      0.307157    40A      0.310071    41A      0.332169  
      42A      0.375212    43A      0.406103    44A      0.451667  
      45A      0.454772    46A      0.483463    47A      0.497301  
      48A      0.575344    49A      0.595964    50A      0.675440  
      51A      0.716640    52A      0.724179    53A      0.730482  
      54A      0.758077    55A      0.766189    56A      0.800739  
      57A      0.814585    58A      0.821150    59A      0.848449  
      60A      0.854551    61A      0.859340    62A      0.886926  
      63A      0.897910    64A      0.941463    65A      0.994316  
      66A      1.007495    67A      1.030061    68A      1.054991  
      69A      1.075259    70A      1.085936    71A      1.090472  
      72A      1.122858    73A      1.131462    74A      1.155047  
      75A      1.178161    76A      1.187662    77A      1.205917  
      78A      1.229513    79A      1.272327    80A      1.288928  
      81A      1.297996    82A      1.346659    83A      1.376008  
      84A      1.397512    85A      1.421053    86A      1.437856  
      87A      1.489395    88A      1.511463    89A      1.528965  
      90A      1.602613    91A      1.637365    92A      1.689046  
      93A      1.719632    94A      1.728555    95A      1.746625  
      96A      1.760721    97A      1.818519    98A      1.835669  
      99A      1.899828   100A      2.033337   101A      2.042267  
     102A      2.049786   103A      2.088131   104A      2.100350  
     105A      2.145457   106A      2.185931   107A      2.232349  
     108A      2.246979   109A      2.273757   110A      2.295357  
     111A      2.304965   112A      2.354869   113A      2.387148  
     114A      2.426437   115A      2.475641   116A      2.483405  
     117A      2.559111   118A      2.601759   119A      2.622032  
     120A      2.637472   121A      2.669607   122A      2.741604  
     123A      2.771120   124A      2.869132   125A      2.883512  
     126A      2.903072   127A      2.969730   128A      3.004261  
     129A      3.035766   130A      3.054368   131A      3.110030  
     132A      3.157961   133A      3.219501   134A      3.314206  
     135A      3.341997   136A      3.421762   137A      3.553522  
     138A      3.833205   139A      4.324856   140A      4.330842  
     141A      4.512239   142A      4.531828   143A      4.608601  
     144A      4.637934   145A      4.777748   146A      4.874527  
     147A      5.184146  

    Final Occupation by Irrep:
              A 
    DOCC [    32 ]

  Energy converged.

  @DF-RHF Final Energy:  -418.28281000049515

   => Energetics <=

    Nuclear Repulsion Energy =            403.3540999175228308
    One-Electron Energy =               -1369.1796658755595217
    Two-Electron Energy =                 547.5427559575427949
    DFT Exchange-Correlation Energy =       0.0000000000000000
    Empirical Dispersion Energy =           0.0000000000000000
    PCM Polarization Energy =               0.0000000000000000
    EFP Energy =                            0.0000000000000000
    Total Energy =                       -418.2828100004938960

    Alert: EFP and PCM quantities not currently incorporated into SCF psivars.

Properties will be evaluated at   0.000000,   0.000000,   0.000000 Bohr
  ==> Properties <==


Properties computed using the SCF density matrix

  Nuclear Dipole Moment: (a.u.)
     X:    -2.2624      Y:     0.3820      Z:     2.5555

  Electronic Dipole Moment: (a.u.)
     X:     1.7514      Y:    -0.1653      Z:    -1.6380

  Dipole Moment: (a.u.)
     X:    -0.5110      Y:     0.2167      Z:     0.9175     Total:     1.0723

  Dipole Moment: (Debye)
     X:    -1.2989      Y:     0.5508      Z:     2.3320     Total:     2.7256


  Saving occupied orbitals to File 180.

*** tstop() called on cx1-3-16-3.cx1.hpc.ic.ac.uk at Tue Jul  5 16:41:05 2016
Module time:
	user time   =      14.83 seconds =       0.25 minutes
	system time =       0.09 seconds =       0.00 minutes
	total time  =         15 seconds =       0.25 minutes
Total time:
	user time   =      14.83 seconds =       0.25 minutes
	system time =       0.09 seconds =       0.00 minutes
	total time  =         15 seconds =       0.25 minutes


Properties will be evaluated at   0.000000,   0.000000,   0.000000 Bohr

Properties computed using the  density matrix

  Nuclear Dipole Moment: (a.u.)
     X:    -2.2624      Y:     0.3820      Z:     2.5555

  Electronic Dipole Moment: (a.u.)
     X:     1.7514      Y:    -0.1653      Z:    -1.6380

  Dipole Moment: (a.u.)
     X:    -0.5110      Y:     0.2167      Z:     0.9175     Total:     1.0723

  Dipole Moment: (Debye)
     X:    -1.2989      Y:     0.5508      Z:     2.3320     Total:     2.7256

  Quadrupole Moment: (Debye Ang)
    XX:   -46.0801     YY:   -54.5995     ZZ:   -55.8283
    XY:    -6.9833     XZ:     3.3678     YZ:     2.1414

  Traceless Quadrupole Moment: (Debye Ang)
    XX:     6.0892     YY:    -2.4302     ZZ:    -3.6590
    XY:    -6.9833     XZ:     3.3678     YZ:     2.1414

  Mulliken Charges: (a.u.)
   Center  Symbol    Alpha    Beta     Spin     Total
       1     H     0.26803  0.26803  0.00000  0.46394
       2     O     4.38326  4.38326  0.00000 -0.76652
       3     C     2.80239  2.80239  0.00000  0.39521
       4     C     3.11241  3.11241  0.00000 -0.22482
       5     C     3.12495  3.12495  0.00000 -0.24990
       6     H     0.38716  0.38716  0.00000  0.22567
       7     C     3.09881  3.09881  0.00000 -0.19763
       8     H     0.37813  0.37813  0.00000  0.24373
       9     C     3.04792  3.04792  0.00000 -0.09584
      10     H     0.39237  0.39237  0.00000  0.21527
      11     C     3.11090  3.11090  0.00000 -0.22181
      12     C     2.83308  2.83308  0.00000  0.33385
      13     H     0.39237  0.39237  0.00000  0.21526
      14     O     4.24651  4.24651  0.00000 -0.49302
      15     H     0.42170  0.42170  0.00000  0.15661

   Total alpha = 32.00000, Total beta = 32.00000, Total charge =  0.00000


*** PSI4 exiting successfully. Buy a developer a beer!
