    -----------------------------------------------------------------------
          Psi4: An Open-Source Ab Initio Electronic Structure Package
                              Psi4 (no tag) Driver

                          Git: Rev {detached?}  

    J. M. Turney, A. C. Simmonett, R. M. Parrish, E. G. Hohenstein,
    F. A. Evangelista, J. T. Fermann, B. J. Mintz, L. A. Burns, J. J. Wilke,
    M. L. Abrams, N. J. Russ, M. L. Leininger, C. L. Janssen, E. T. Seidl,
    W. D. Allen, H. F. Schaefer, R. A. King, E. F. Valeev, C. D. Sherrill,
    and T. D. Crawford, WIREs Comput. Mol. Sci. 2, 556-565 (2012)
    (doi: 10.1002/wcms.93)

                         Additional Contributions by
    A. E. DePrince, M. Saitow, U. Bozkaya, A. Yu. Sokolov
    -----------------------------------------------------------------------


    Psi4 started on: Tue Jul  5 16:29:52 2016

    Process ID:  11672
    PSI4DATADIR: /export131/home/mjharvey/miniconda3/share
    Memory level set to 256.000 MB

  ==> Input File <==

--------------------------------------------------------------------------
set {
	reference rhf
	basis 6-31G*
}


set_num_threads( 1 )
memory 2 gb

molecule MOL {
0 1

H	 -0.441472	 1.944862	 -1.216803
C	 0.557503	 1.679937	 -0.867300
N	 0.538815	 0.649616	 0.000000
O	 1.532600	 2.264160	 -1.237540
C	 1.521968	 -0.411503	 0.000000
H	 -0.192644	 0.624219	 0.672761
H	 2.150599	 -0.357004	 -0.881901
H	 0.999455	 -1.354525	 0.000000
H	 2.150599	 -0.357004	 0.881901

	symmetry c1
}
set optking {
	frozen_dihedral = ("
		6 3 5 7
	")
}

ee = energy('scf')
oeprop('DIPOLE', 'QUADRUPOLE', 'MULLIKEN_CHARGES')
f=open( 'psi4out.xyz', 'w' )
f.write( "9  " )
f.write( str(ee) + "\n" )
f.write( MOL.save_string_xyz() )
f.close()
--------------------------------------------------------------------------

  Memory set to   2.000 GiB by Python script.

*** tstart() called on cx1-1-4-3.cx1.hpc.ic.ac.uk
*** at Tue Jul  5 16:29:52 2016


         ---------------------------------------------------------
                                   SCF
            by Justin Turney, Rob Parrish, and Andy Simmonett
                              RHF Reference
                        1 Threads,   2000 MiB Core
         ---------------------------------------------------------

  ==> Geometry <==

    Molecular point group: c1
    Full point group: C1

    Geometry (in Angstrom), charge = 0, multiplicity = 1:

       Center              X                  Y                   Z               Mass       
    ------------   -----------------  -----------------  -----------------  -----------------
           H         -1.486841146815     0.910981179971    -0.695940040870     1.007825032070
           C         -0.487866146815     0.646056179971    -0.346437040870    12.000000000000
           N         -0.506554146815    -0.384264820029     0.520862959130    14.003074004780
           O          0.487230853185     1.230279179971    -0.716677040870    15.994914619560
           C          0.476598853185    -1.445383820029     0.520862959130    12.000000000000
           H         -1.238013146815    -0.409661820029     1.193623959130     1.007825032070
           H          1.105229853185    -1.390884820029    -0.361038040870     1.007825032070
           H         -0.045914146815    -2.388405820029     0.520862959130     1.007825032070
           H          1.105229853185    -1.390884820029     1.402763959130     1.007825032070

  Running in c1 symmetry.

  Rotational constants: A =      0.72040  B =      0.19456  C =      0.16142 [cm^-1]
  Rotational constants: A =  21597.05149  B =   5832.68243  C =   4839.14852 [MHz]
  Nuclear repulsion =  121.992873232947105

  Charge       = 0
  Multiplicity = 1
  Electrons    = 32
  Nalpha       = 16
  Nbeta        = 16

  ==> Algorithm <==

  SCF Algorithm Type is DF.
  DIIS enabled.
  MOM disabled.
  Fractional occupation disabled.
  Guess Type is CORE.
  Energy threshold   = 1.00e-06
  Density threshold  = 1.00e-06
  Integral threshold = 0.00e+00

  ==> Primary Basis <==

  Basis Set: 6-31G*
    Number of shells: 34
    Number of basis function: 70
    Number of Cartesian functions: 70
    Spherical Harmonics?: false
    Max angular momentum: 2

  ==> Pre-Iterations <==

   -------------------------------------------------------
    Irrep   Nso     Nmo     Nalpha   Nbeta   Ndocc  Nsocc
   -------------------------------------------------------
     A         70      70       0       0       0       0
   -------------------------------------------------------
    Total      70      70      16      16      16       0
   -------------------------------------------------------

 OEINTS: Overlap, kinetic, potential, dipole, and quadrupole integrals
         stored in file 35.

  ==> Integral Setup <==

  ==> DFJK: Density-Fitted J/K Matrices <==

    J tasked:                  Yes
    K tasked:                  Yes
    wK tasked:                  No
    OpenMP threads:              1
    Integrals threads:           1
    Memory (MB):              1430
    Algorithm:                Core
    Integral Cache:           NONE
    Schwarz Cutoff:          1E-12
    Fitting Condition:       1E-12

   => Auxiliary Basis Set <=

  Basis Set: 
    Number of shells: 141
    Number of basis function: 449
    Number of Cartesian functions: 449
    Spherical Harmonics?: false
    Max angular momentum: 3

  Minimum eigenvalue in the overlap matrix is 4.8766371371E-03.
  Using Symmetric Orthogonalization.
  SCF Guess: Core (One-Electron) Hamiltonian.

  ==> Iterations <==

                           Total Energy        Delta E     RMS |[F,P]|

   @DF-RHF iter   1:  -166.78653650181491   -1.66787e+02   9.43637e-02 
   @DF-RHF iter   2:  -129.97034477148691    3.68162e+01   8.29158e-02 DIIS
   @DF-RHF iter   3:  -190.02507311853049   -6.00547e+01   5.37657e-02 DIIS
   @DF-RHF iter   4:  -207.20086431403178   -1.71758e+01   1.78707e-02 DIIS
   @DF-RHF iter   5:  -207.88405977575087   -6.83195e-01   5.23903e-03 DIIS
   @DF-RHF iter   6:  -207.94107819331140   -5.70184e-02   8.76437e-04 DIIS
   @DF-RHF iter   7:  -207.94334285904040   -2.26467e-03   2.87047e-04 DIIS
   @DF-RHF iter   8:  -207.94365592584597   -3.13067e-04   1.32679e-04 DIIS
   @DF-RHF iter   9:  -207.94371239300347   -5.64672e-05   6.61863e-05 DIIS
   @DF-RHF iter  10:  -207.94372742633675   -1.50333e-05   2.64452e-05 DIIS
   @DF-RHF iter  11:  -207.94372994031551   -2.51398e-06   7.94535e-06 DIIS
   @DF-RHF iter  12:  -207.94373014644094   -2.06125e-07   2.29260e-06 DIIS
   @DF-RHF iter  13:  -207.94373017797113   -3.15302e-08   8.89660e-07 DIIS

  ==> Post-Iterations <==

    Orbital Energies (a.u.)
    -----------------------

    Doubly Occupied:                                                      

       1A    -20.536625     2A    -15.577376     3A    -11.344798  
       4A    -11.262958     5A     -1.393138     6A     -1.232812  
       7A     -0.966075     8A     -0.809649     9A     -0.739392  
      10A     -0.642024    11A     -0.637855    12A     -0.595436  
      13A     -0.559533    14A     -0.523144    15A     -0.428284  
      16A     -0.385007  

    Virtual:                                                              

      17A      0.189262    18A      0.229758    19A      0.267958  
      20A      0.289441    21A      0.316828    22A      0.322320  
      23A      0.385064    24A      0.450768    25A      0.577486  
      26A      0.714810    27A      0.720332    28A      0.779487  
      29A      0.800485    30A      0.865405    31A      0.955728  
      32A      0.995431    33A      1.026691    34A      1.063402  
      35A      1.114019    36A      1.117666    37A      1.145345  
      38A      1.179735    39A      1.208470    40A      1.221350  
      41A      1.315221    42A      1.323108    43A      1.362926  
      44A      1.402806    45A      1.573338    46A      1.681292  
      47A      1.819754    48A      1.843255    49A      1.866233  
      50A      2.044357    51A      2.138425    52A      2.162918  
      53A      2.249802    54A      2.296188    55A      2.344008  
      56A      2.475048    57A      2.483476    58A      2.605407  
      59A      2.656663    60A      2.786653    61A      2.814131  
      62A      2.925909    63A      3.029088    64A      3.149825  
      65A      3.323806    66A      3.458095    67A      4.283768  
      68A      4.327427    69A      4.586743    70A      4.719064  

    Final Occupation by Irrep:
              A 
    DOCC [    16 ]

  Energy converged.

  @DF-RHF Final Energy:  -207.94373017797113

   => Energetics <=

    Nuclear Repulsion Energy =            121.9928732329471046
    One-Electron Energy =                -524.6050353657702772
    Two-Electron Energy =                 194.6684319548519113
    DFT Exchange-Correlation Energy =       0.0000000000000000
    Empirical Dispersion Energy =           0.0000000000000000
    PCM Polarization Energy =               0.0000000000000000
    EFP Energy =                            0.0000000000000000
    Total Energy =                       -207.9437301779712755

    Alert: EFP and PCM quantities not currently incorporated into SCF psivars.

Properties will be evaluated at   0.000000,   0.000000,   0.000000 Bohr
  ==> Properties <==


Properties computed using the SCF density matrix

  Nuclear Dipole Moment: (a.u.)
     X:    -0.5215      Y:    -4.3699      Z:     1.9265

  Electronic Dipole Moment: (a.u.)
     X:    -0.4094      Y:     3.3697      Z:    -1.2575

  Dipole Moment: (a.u.)
     X:    -0.9309      Y:    -1.0002      Z:     0.6690     Total:     1.5214

  Dipole Moment: (Debye)
     X:    -2.3661      Y:    -2.5423      Z:     1.7003     Total:     3.8669


  Saving occupied orbitals to File 180.

*** tstop() called on cx1-1-4-3.cx1.hpc.ic.ac.uk at Tue Jul  5 16:29:55 2016
Module time:
	user time   =       2.51 seconds =       0.04 minutes
	system time =       0.03 seconds =       0.00 minutes
	total time  =          3 seconds =       0.05 minutes
Total time:
	user time   =       2.51 seconds =       0.04 minutes
	system time =       0.03 seconds =       0.00 minutes
	total time  =          3 seconds =       0.05 minutes


Properties will be evaluated at   0.000000,   0.000000,   0.000000 Bohr

Properties computed using the  density matrix

  Nuclear Dipole Moment: (a.u.)
     X:    -0.5215      Y:    -4.3699      Z:     1.9265

  Electronic Dipole Moment: (a.u.)
     X:    -0.4094      Y:     3.3697      Z:    -1.2575

  Dipole Moment: (a.u.)
     X:    -0.9309      Y:    -1.0002      Z:     0.6690     Total:     1.5214

  Dipole Moment: (Debye)
     X:    -2.3661      Y:    -2.5423      Z:     1.7003     Total:     3.8669

  Quadrupole Moment: (Debye Ang)
    XX:   -22.5868     YY:   -25.7730     ZZ:   -23.8016
    XY:    -3.0590     XZ:    -0.1691     YZ:     1.0360

  Traceless Quadrupole Moment: (Debye Ang)
    XX:     1.4670     YY:    -1.7192     ZZ:     0.2522
    XY:    -3.0590     XZ:    -0.1691     YZ:     1.0360

  Mulliken Charges: (a.u.)
   Center  Symbol    Alpha    Beta     Spin     Total
       1     H     0.42954  0.42954  0.00000  0.14093
       2     C     2.75353  2.75353  0.00000  0.49294
       3     N     3.88089  3.88089  0.00000 -0.76178
       4     O     4.26400  4.26400  0.00000 -0.52799
       5     C     3.13732  3.13732  0.00000 -0.27463
       6     H     0.30885  0.30885  0.00000  0.38229
       7     H     0.39740  0.39740  0.00000  0.20519
       8     H     0.41519  0.41519  0.00000  0.16962
       9     H     0.41329  0.41329  0.00000  0.17343

   Total alpha = 16.00000, Total beta = 16.00000, Total charge =  0.00000


*** PSI4 exiting successfully. Buy a developer a beer!
