    -----------------------------------------------------------------------
          Psi4: An Open-Source Ab Initio Electronic Structure Package
                              Psi4 (no tag) Driver

                          Git: Rev {detached?}  

    J. M. Turney, A. C. Simmonett, R. M. Parrish, E. G. Hohenstein,
    F. A. Evangelista, J. T. Fermann, B. J. Mintz, L. A. Burns, J. J. Wilke,
    M. L. Abrams, N. J. Russ, M. L. Leininger, C. L. Janssen, E. T. Seidl,
    W. D. Allen, H. F. Schaefer, R. A. King, E. F. Valeev, C. D. Sherrill,
    and T. D. Crawford, WIREs Comput. Mol. Sci. 2, 556-565 (2012)
    (doi: 10.1002/wcms.93)

                         Additional Contributions by
    A. E. DePrince, M. Saitow, U. Bozkaya, A. Yu. Sokolov
    -----------------------------------------------------------------------


    Psi4 started on: Tue Jul  5 16:49:38 2016

    Process ID:  18833
    PSI4DATADIR: /export131/home/mjharvey/miniconda3/share
    Memory level set to 256.000 MB

  ==> Input File <==

--------------------------------------------------------------------------
set {
	reference rhf
	basis 6-31G*
}


set_num_threads( 1 )
memory 2 gb

molecule MOL {
0 1

H	 -3.571158	 0.540474	 0.139285
O	 -3.106200	 -0.271124	 -0.011510
C	 -1.775819	 -0.076055	 -0.001477
C	 -1.167513	 0.924922	 -0.753148
C	 -1.012907	 -0.919381	 0.796540
H	 -1.766123	 1.574264	 -1.369047
C	 0.202072	 1.078589	 -0.703711
H	 -1.505291	 -1.683839	 1.367008
C	 0.355778	 -0.753176	 0.835461
H	 0.684649	 1.846647	 -1.278433
C	 0.979997	 0.242268	 0.090433
H	 0.947448	 -1.406437	 1.453714
C	 2.445885	 0.408104	 0.142216
O	 3.165025	 -0.144594	 0.915598
H	 2.859196	 1.097587	 -0.601393

	symmetry c1
}
set optking {
	frozen_dihedral = ("
		7 11 13 14
	")
}

ee = energy('scf')
oeprop('DIPOLE', 'QUADRUPOLE', 'MULLIKEN_CHARGES')
f=open( 'psi4out.xyz', 'w' )
f.write( "15  " )
f.write( str(ee) + "\n" )
f.write( MOL.save_string_xyz() )
f.close()
--------------------------------------------------------------------------

  Memory set to   2.000 GiB by Python script.

*** tstart() called on cx1-1-3-3.cx1.hpc.ic.ac.uk
*** at Tue Jul  5 16:49:38 2016


         ---------------------------------------------------------
                                   SCF
            by Justin Turney, Rob Parrish, and Andy Simmonett
                              RHF Reference
                        1 Threads,   2000 MiB Core
         ---------------------------------------------------------

  ==> Geometry <==

    Molecular point group: c1
    Full point group: C1

    Geometry (in Angstrom), charge = 0, multiplicity = 1:

       Center              X                  Y                   Z               Mass       
    ------------   -----------------  -----------------  -----------------  -----------------
           H         -3.562153657324     0.489686202892    -0.016778213660     1.007825032070
           O         -3.097195657324    -0.321911797108    -0.167573213660    15.994914619560
           C         -1.766814657324    -0.126842797108    -0.157540213660    12.000000000000
           C         -1.158508657324     0.874134202892    -0.909211213660    12.000000000000
           C         -1.003902657324    -0.970168797108     0.640476786340    12.000000000000
           H         -1.757118657324     1.523476202892    -1.525110213660     1.007825032070
           C          0.211076342676     1.027801202892    -0.859774213660    12.000000000000
           H         -1.496286657324    -1.734626797108     1.210944786340     1.007825032070
           C          0.364782342676    -0.803963797108     0.679397786340    12.000000000000
           H          0.693653342676     1.795859202892    -1.434496213660     1.007825032070
           C          0.989001342676     0.191480202892    -0.065630213660    12.000000000000
           H          0.956452342676    -1.457224797108     1.297650786340     1.007825032070
           C          2.454889342676     0.357316202892    -0.013847213660    12.000000000000
           O          3.174029342676    -0.195381797108     0.759534786340    15.994914619560
           H          2.868200342676     1.046799202892    -0.757456213660     1.007825032070

  Running in c1 symmetry.

  Rotational constants: A =      0.17209  B =      0.03358  C =      0.02817 [cm^-1]
  Rotational constants: A =   5159.03922  B =   1006.76653  C =    844.57254 [MHz]
  Nuclear repulsion =  401.305761895983437

  Charge       = 0
  Multiplicity = 1
  Electrons    = 64
  Nalpha       = 32
  Nbeta        = 32

  ==> Algorithm <==

  SCF Algorithm Type is DF.
  DIIS enabled.
  MOM disabled.
  Fractional occupation disabled.
  Guess Type is CORE.
  Energy threshold   = 1.00e-06
  Density threshold  = 1.00e-06
  Integral threshold = 0.00e+00

  ==> Primary Basis <==

  Basis Set: 6-31G*
    Number of shells: 66
    Number of basis function: 147
    Number of Cartesian functions: 147
    Spherical Harmonics?: false
    Max angular momentum: 2

  ==> Pre-Iterations <==

   -------------------------------------------------------
    Irrep   Nso     Nmo     Nalpha   Nbeta   Ndocc  Nsocc
   -------------------------------------------------------
     A        147     147       0       0       0       0
   -------------------------------------------------------
    Total     147     147      32      32      32       0
   -------------------------------------------------------

 OEINTS: Overlap, kinetic, potential, dipole, and quadrupole integrals
         stored in file 35.

  ==> Integral Setup <==

  ==> DFJK: Density-Fitted J/K Matrices <==

    J tasked:                  Yes
    K tasked:                  Yes
    wK tasked:                  No
    OpenMP threads:              1
    Integrals threads:           1
    Memory (MB):              1430
    Algorithm:                Core
    Integral Cache:           NONE
    Schwarz Cutoff:          1E-12
    Fitting Condition:       1E-12

   => Auxiliary Basis Set <=

  Basis Set: 
    Number of shells: 270
    Number of basis function: 879
    Number of Cartesian functions: 879
    Spherical Harmonics?: false
    Max angular momentum: 3

  Minimum eigenvalue in the overlap matrix is 4.0266409933E-04.
  Using Symmetric Orthogonalization.
  SCF Guess: Core (One-Electron) Hamiltonian.

  ==> Iterations <==

                           Total Energy        Delta E     RMS |[F,P]|

   @DF-RHF iter   1:  -343.07163081982549   -3.43072e+02   6.06965e-02 
   @DF-RHF iter   2:  -200.25208941422181    1.42820e+02   8.18083e-02 DIIS
   @DF-RHF iter   3:  -329.03556524736064   -1.28783e+02   4.75986e-02 DIIS
   @DF-RHF iter   4:  -306.86344753630397    2.21721e+01   5.87995e-02 DIIS
   @DF-RHF iter   5:  -416.81835762859532   -1.09955e+02   1.16637e-02 DIIS
   @DF-RHF iter   6:  -417.87021686806668   -1.05186e+00   6.39873e-03 DIIS
   @DF-RHF iter   7:  -418.24044397242062   -3.70227e-01   1.65025e-03 DIIS
   @DF-RHF iter   8:  -418.28083763354380   -4.03937e-02   4.87126e-04 DIIS
   @DF-RHF iter   9:  -418.28421425242686   -3.37662e-03   2.32455e-04 DIIS
   @DF-RHF iter  10:  -418.28518545455188   -9.71202e-04   1.00148e-04 DIIS
   @DF-RHF iter  11:  -418.28536710791434   -1.81653e-04   3.27063e-05 DIIS
   @DF-RHF iter  12:  -418.28538775018376   -2.06423e-05   1.06899e-05 DIIS
   @DF-RHF iter  13:  -418.28539019735365   -2.44717e-06   3.90325e-06 DIIS
   @DF-RHF iter  14:  -418.28539088996808   -6.92614e-07   1.93204e-06 DIIS
   @DF-RHF iter  15:  -418.28539109517794   -2.05210e-07   9.76946e-07 DIIS

  ==> Post-Iterations <==

    Orbital Energies (a.u.)
    -----------------------

    Doubly Occupied:                                                      

       1A    -20.601162     2A    -20.558348     3A    -11.329551  
       4A    -11.317409     5A    -11.261220     6A    -11.252793  
       7A    -11.244754     8A    -11.241722     9A    -11.237894  
      10A     -1.425254    11A     -1.398951    12A     -1.169931  
      13A     -1.041877    14A     -1.035962    15A     -0.891290  
      16A     -0.856213    17A     -0.801226    18A     -0.755337  
      19A     -0.699464    20A     -0.681395    21A     -0.642562  
      22A     -0.627709    23A     -0.619492    24A     -0.606767  
      25A     -0.564314    26A     -0.553519    27A     -0.541735  
      28A     -0.500576    29A     -0.482812    30A     -0.420336  
      31A     -0.355640    32A     -0.333297  

    Virtual:                                                              

      33A      0.092049    34A      0.128485    35A      0.210866  
      36A      0.231999    37A      0.240125    38A      0.263832  
      39A      0.300983    40A      0.322840    41A      0.333325  
      42A      0.376061    43A      0.413794    44A      0.427393  
      45A      0.451709    46A      0.488264    47A      0.538669  
      48A      0.561618    49A      0.573899    50A      0.706500  
      51A      0.714112    52A      0.723120    53A      0.750958  
      54A      0.758480    55A      0.770866    56A      0.778437  
      57A      0.806874    58A      0.810519    59A      0.825502  
      60A      0.860128    61A      0.871840    62A      0.892045  
      63A      0.894182    64A      0.934350    65A      0.994045  
      66A      1.015684    67A      1.042097    68A      1.053617  
      69A      1.071089    70A      1.086302    71A      1.108413  
      72A      1.110829    73A      1.130409    74A      1.145130  
      75A      1.172400    76A      1.201657    77A      1.214190  
      78A      1.225068    79A      1.260636    80A      1.293563  
      81A      1.305215    82A      1.334544    83A      1.360543  
      84A      1.413330    85A      1.425315    86A      1.454521  
      87A      1.470021    88A      1.493686    89A      1.531444  
      90A      1.625557    91A      1.655235    92A      1.676113  
      93A      1.715501    94A      1.727595    95A      1.737833  
      96A      1.772217    97A      1.816165    98A      1.834776  
      99A      1.887995   100A      2.029530   101A      2.043741  
     102A      2.059326   103A      2.077534   104A      2.102136  
     105A      2.154668   106A      2.175217   107A      2.226104  
     108A      2.237906   109A      2.270216   110A      2.304299  
     111A      2.348729   112A      2.372411   113A      2.399840  
     114A      2.410396   115A      2.448759   116A      2.477781  
     117A      2.546091   118A      2.601991   119A      2.632304  
     120A      2.639732   121A      2.659805   122A      2.736126  
     123A      2.772553   124A      2.853466   125A      2.863920  
     126A      2.928550   127A      2.974289   128A      3.003008  
     129A      3.020599   130A      3.056026   131A      3.102016  
     132A      3.182011   133A      3.249958   134A      3.309001  
     135A      3.358382   136A      3.407801   137A      3.560805  
     138A      3.831363   139A      4.316454   140A      4.335489  
     141A      4.514543   142A      4.533711   143A      4.585652  
     144A      4.679725   145A      4.742416   146A      4.894184  
     147A      5.177360  

    Final Occupation by Irrep:
              A 
    DOCC [    32 ]

  Energy converged.

  @DF-RHF Final Energy:  -418.28539109517794

   => Energetics <=

    Nuclear Repulsion Energy =            401.3057618959834372
    One-Electron Energy =               -1365.0814920644656922
    Two-Electron Energy =                 545.4903390733057904
    DFT Exchange-Correlation Energy =       0.0000000000000000
    Empirical Dispersion Energy =           0.0000000000000000
    PCM Polarization Energy =               0.0000000000000000
    EFP Energy =                            0.0000000000000000
    Total Energy =                       -418.2853910951764647

    Alert: EFP and PCM quantities not currently incorporated into SCF psivars.

Properties will be evaluated at   0.000000,   0.000000,   0.000000 Bohr
  ==> Properties <==


Properties computed using the SCF density matrix

  Nuclear Dipole Moment: (a.u.)
     X:    -2.1532      Y:     1.5574      Z:    -1.1458

  Electronic Dipole Moment: (a.u.)
     X:     0.9810      Y:    -0.5838      Z:     0.6343

  Dipole Moment: (a.u.)
     X:    -1.1722      Y:     0.9736      Z:    -0.5115     Total:     1.6074

  Dipole Moment: (Debye)
     X:    -2.9795      Y:     2.4746      Z:    -1.3001     Total:     4.0855


  Saving occupied orbitals to File 180.

*** tstop() called on cx1-1-3-3.cx1.hpc.ic.ac.uk at Tue Jul  5 16:49:53 2016
Module time:
	user time   =      14.14 seconds =       0.24 minutes
	system time =       0.09 seconds =       0.00 minutes
	total time  =         15 seconds =       0.25 minutes
Total time:
	user time   =      14.14 seconds =       0.24 minutes
	system time =       0.09 seconds =       0.00 minutes
	total time  =         15 seconds =       0.25 minutes


Properties will be evaluated at   0.000000,   0.000000,   0.000000 Bohr

Properties computed using the  density matrix

  Nuclear Dipole Moment: (a.u.)
     X:    -2.1532      Y:     1.5574      Z:    -1.1458

  Electronic Dipole Moment: (a.u.)
     X:     0.9810      Y:    -0.5838      Z:     0.6343

  Dipole Moment: (a.u.)
     X:    -1.1722      Y:     0.9736      Z:    -0.5115     Total:     1.6074

  Dipole Moment: (Debye)
     X:    -2.9795      Y:     2.4746      Z:    -1.3001     Total:     4.0855

  Quadrupole Moment: (Debye Ang)
    XX:   -57.7487     YY:   -48.0228     ZZ:   -51.8507
    XY:    -2.5581     XZ:    -6.4510     YZ:    -4.0490

  Traceless Quadrupole Moment: (Debye Ang)
    XX:    -5.2080     YY:     4.5179     ZZ:     0.6901
    XY:    -2.5581     XZ:    -6.4510     YZ:    -4.0490

  Mulliken Charges: (a.u.)
   Center  Symbol    Alpha    Beta     Spin     Total
       1     H     0.26851  0.26851  0.00000  0.46299
       2     O     4.37818  4.37818  0.00000 -0.75637
       3     C     2.79833  2.79833  0.00000  0.40334
       4     C     3.13637  3.13637  0.00000 -0.27274
       5     C     3.12325  3.12325  0.00000 -0.24650
       6     H     0.39466  0.39466  0.00000  0.21068
       7     C     3.09414  3.09414  0.00000 -0.18828
       8     H     0.38607  0.38607  0.00000  0.22787
       9     C     3.08298  3.08298  0.00000 -0.16595
      10     H     0.39008  0.39008  0.00000  0.21983
      11     C     3.06294  3.06294  0.00000 -0.12588
      12     H     0.37616  0.37616  0.00000  0.24768
      13     C     2.83197  2.83197  0.00000  0.33607
      14     O     4.25141  4.25141  0.00000 -0.50282
      15     H     0.42496  0.42496  0.00000  0.15007

   Total alpha = 32.00000, Total beta = 32.00000, Total charge = -0.00000


*** PSI4 exiting successfully. Buy a developer a beer!
