    -----------------------------------------------------------------------
          Psi4: An Open-Source Ab Initio Electronic Structure Package
                              Psi4 (no tag) Driver

                          Git: Rev {detached?}  

    J. M. Turney, A. C. Simmonett, R. M. Parrish, E. G. Hohenstein,
    F. A. Evangelista, J. T. Fermann, B. J. Mintz, L. A. Burns, J. J. Wilke,
    M. L. Abrams, N. J. Russ, M. L. Leininger, C. L. Janssen, E. T. Seidl,
    W. D. Allen, H. F. Schaefer, R. A. King, E. F. Valeev, C. D. Sherrill,
    and T. D. Crawford, WIREs Comput. Mol. Sci. 2, 556-565 (2012)
    (doi: 10.1002/wcms.93)

                         Additional Contributions by
    A. E. DePrince, M. Saitow, U. Bozkaya, A. Yu. Sokolov
    -----------------------------------------------------------------------


    Psi4 started on: Tue Jul  5 18:00:56 2016

    Process ID:  25702
    PSI4DATADIR: /export131/home/mjharvey/miniconda3/share
    Memory level set to 256.000 MB

  ==> Input File <==

--------------------------------------------------------------------------
set {
	reference rhf
	basis 6-31G*
}


set_num_threads( 1 )
memory 2 gb

molecule MOL {
0 1

O	 -3.853486	 4.767425	 2.367791
C	 -3.589812	 4.457530	 1.246542
C	 -2.652680	 3.307590	 0.923494
C	 -4.178810	 5.198743	 0.063816
C	 -2.933125	 2.035105	 1.717450
H	 -2.717326	 3.115698	 -0.146734
H	 -1.633034	 3.650735	 1.093720
C	 -1.656409	 1.385123	 2.253436
H	 -3.468151	 1.332632	 1.086254
H	 -3.601706	 2.269020	 2.539904
C	 -0.839363	 0.686298	 1.165405
H	 -1.038476	 2.141149	 2.735755
H	 -1.913205	 0.663736	 3.027855
C	 -0.501879	 1.596473	 -0.016838
H	 -1.388715	 -0.181673	 0.805047
H	 0.082998	 0.303474	 1.598640
C	 -1.701148	 1.864796	 -0.925376
H	 -0.113444	 2.541974	 0.355949
H	 0.298943	 1.146965	 -0.600350
H	 -2.507374	 2.345504	 -0.378504
H	 -1.430775	 2.513005	 -1.753280
H	 -2.091361	 0.940742	 -1.342511
H	 -4.744894	 4.518640	 -0.565967
H	 -4.826996	 5.989572	 0.414927
H	 -3.388670	 5.622899	 -0.548887

	symmetry c1
}
set optking {
	frozen_dihedral = ("
		9 5 8 12,
		15 11 8 12,
		15 11 14 18,
		1 2 3 6
	")
}

ee = energy('scf')
oeprop('DIPOLE', 'QUADRUPOLE', 'MULLIKEN_CHARGES')
f=open( 'psi4out.xyz', 'w' )
f.write( "25  " )
f.write( str(ee) + "\n" )
f.write( MOL.save_string_xyz() )
f.close()
--------------------------------------------------------------------------

  Memory set to   2.000 GiB by Python script.

*** tstart() called on cx1-1-2-1.cx1.hpc.ic.ac.uk
*** at Tue Jul  5 18:00:56 2016


         ---------------------------------------------------------
                                   SCF
            by Justin Turney, Rob Parrish, and Andy Simmonett
                              RHF Reference
                        1 Threads,   2000 MiB Core
         ---------------------------------------------------------

  ==> Geometry <==

    Molecular point group: c1
    Full point group: C1

    Geometry (in Angstrom), charge = 0, multiplicity = 1:

       Center              X                  Y                   Z               Mass       
    ------------   -----------------  -----------------  -----------------  -----------------
           O         -1.410256055625     1.943098567599     1.404673699903    15.994914619560
           C         -1.146582055625     1.633203567599     0.283424699903    12.000000000000
           C         -0.209450055625     0.483263567599    -0.039623300097    12.000000000000
           C         -1.735580055625     2.374416567599    -0.899301300097    12.000000000000
           C         -0.489895055625    -0.789221432401     0.754332699903    12.000000000000
           H         -0.274096055625     0.291371567599    -1.109851300097     1.007825032070
           H          0.810195944375     0.826408567599     0.130602699903     1.007825032070
           C          0.786820944375    -1.439203432401     1.290318699903    12.000000000000
           H         -1.024921055625    -1.491694432401     0.123136699903     1.007825032070
           H         -1.158476055625    -0.555306432401     1.576786699903     1.007825032070
           C          1.603866944375    -2.138028432401     0.202287699903    12.000000000000
           H          1.404753944375    -0.683177432401     1.772637699903     1.007825032070
           H          0.530024944375    -2.160590432401     2.064737699903     1.007825032070
           C          1.941350944375    -1.227853432401    -0.979955300097    12.000000000000
           H          1.054514944375    -3.005999432401    -0.158070300097     1.007825032070
           H          2.526227944375    -2.520852432401     0.635522699903     1.007825032070
           C          0.742081944375    -0.959530432401    -1.888493300097    12.000000000000
           H          2.329785944375    -0.282352432401    -0.607168300097     1.007825032070
           H          2.742172944375    -1.677361432401    -1.563467300097     1.007825032070
           H         -0.064144055625    -0.478822432401    -1.341621300097     1.007825032070
           H          1.012454944375    -0.311321432401    -2.716397300097     1.007825032070
           H          0.351868944375    -1.883584432401    -2.305628300097     1.007825032070
           H         -2.301664055625     1.694313567599    -1.529084300097     1.007825032070
           H         -2.383766055625     3.165245567599    -0.548190300097     1.007825032070
           H         -0.945440055625     2.798572567599    -1.512004300097     1.007825032070

  Running in c1 symmetry.

  Rotational constants: A =      0.09039  B =      0.03081  C =      0.02491 [cm^-1]
  Rotational constants: A =   2709.70111  B =    923.60122  C =    746.66839 [MHz]
  Nuclear repulsion =  482.174738229768764

  Charge       = 0
  Multiplicity = 1
  Electrons    = 72
  Nalpha       = 36
  Nbeta        = 36

  ==> Algorithm <==

  SCF Algorithm Type is DF.
  DIIS enabled.
  MOM disabled.
  Fractional occupation disabled.
  Guess Type is CORE.
  Energy threshold   = 1.00e-06
  Density threshold  = 1.00e-06
  Integral threshold = 0.00e+00

  ==> Primary Basis <==

  Basis Set: 6-31G*
    Number of shells: 86
    Number of basis function: 167
    Number of Cartesian functions: 167
    Spherical Harmonics?: false
    Max angular momentum: 2

  ==> Pre-Iterations <==

   -------------------------------------------------------
    Irrep   Nso     Nmo     Nalpha   Nbeta   Ndocc  Nsocc
   -------------------------------------------------------
     A        167     167       0       0       0       0
   -------------------------------------------------------
    Total     167     167      36      36      36       0
   -------------------------------------------------------

 OEINTS: Overlap, kinetic, potential, dipole, and quadrupole integrals
         stored in file 35.

  ==> Integral Setup <==

  ==> DFJK: Density-Fitted J/K Matrices <==

    J tasked:                  Yes
    K tasked:                  Yes
    wK tasked:                  No
    OpenMP threads:              1
    Integrals threads:           1
    Memory (MB):              1430
    Algorithm:                Core
    Integral Cache:           NONE
    Schwarz Cutoff:          1E-12
    Fitting Condition:       1E-12

   => Auxiliary Basis Set <=

  Basis Set: 
    Number of shells: 360
    Number of basis function: 1129
    Number of Cartesian functions: 1129
    Spherical Harmonics?: false
    Max angular momentum: 3

  Minimum eigenvalue in the overlap matrix is 2.8106416931E-03.
  Using Symmetric Orthogonalization.
  SCF Guess: Core (One-Electron) Hamiltonian.

  ==> Iterations <==

                           Total Energy        Delta E     RMS |[F,P]|

   @DF-RHF iter   1:  -291.05074866931113   -2.91051e+02   6.33564e-02 
   @DF-RHF iter   2:  -248.47705684906691    4.25737e+01   5.08858e-02 DIIS
   @DF-RHF iter   3:  -305.33692216207976   -5.68599e+01   5.27736e-02 DIIS
   @DF-RHF iter   4:  -364.17485837671484   -5.88379e+01   3.20038e-02 DIIS
   @DF-RHF iter   5:  -381.85490371871185   -1.76800e+01   1.69033e-02 DIIS
   @DF-RHF iter   6:  -386.67394579573875   -4.81904e+00   4.57616e-03 DIIS
   @DF-RHF iter   7:  -386.94808732783133   -2.74142e-01   1.63940e-03 DIIS
   @DF-RHF iter   8:  -386.98020762477245   -3.21203e-02   4.85463e-04 DIIS
   @DF-RHF iter   9:  -386.98436955257728   -4.16193e-03   1.82650e-04 DIIS
   @DF-RHF iter  10:  -386.98508594220493   -7.16390e-04   4.91529e-05 DIIS
   @DF-RHF iter  11:  -386.98519736005142   -1.11418e-04   2.09269e-05 DIIS
   @DF-RHF iter  12:  -386.98521440666673   -1.70466e-05   7.10311e-06 DIIS
   @DF-RHF iter  13:  -386.98521649701001   -2.09034e-06   2.50709e-06 DIIS
   @DF-RHF iter  14:  -386.98521683099773   -3.33988e-07   1.02225e-06 DIIS
   @DF-RHF iter  15:  -386.98521690057009   -6.95724e-08   4.95742e-07 DIIS

  ==> Post-Iterations <==

    Orbital Energies (a.u.)
    -----------------------

    Doubly Occupied:                                                      

       1A    -20.545160     2A    -11.321194     3A    -11.228327  
       4A    -11.224122     5A    -11.219591     6A    -11.218830  
       7A    -11.217376     8A    -11.216398     9A    -11.190273  
      10A     -1.391557    11A     -1.124881    12A     -1.048909  
      13A     -1.019208    14A     -0.995206    15A     -0.891947  
      16A     -0.849975    17A     -0.788413    18A     -0.754757  
      19A     -0.690603    20A     -0.653486    21A     -0.625894  
      22A     -0.613185    23A     -0.606252    24A     -0.595280  
      25A     -0.584435    26A     -0.559637    27A     -0.554193  
      28A     -0.535677    29A     -0.517158    30A     -0.496092  
      31A     -0.477341    32A     -0.467366    33A     -0.462829  
      34A     -0.451437    35A     -0.413175    36A     -0.376014  

    Virtual:                                                              

      37A      0.167310    38A      0.224637    39A      0.235420  
      40A      0.251143    41A      0.266873    42A      0.278533  
      43A      0.291699    44A      0.296646    45A      0.306993  
      46A      0.315424    47A      0.331780    48A      0.334163  
      49A      0.340386    50A      0.345396    51A      0.367867  
      52A      0.378335    53A      0.394792    54A      0.399409  
      55A      0.423441    56A      0.439338    57A      0.454950  
      58A      0.473300    59A      0.495145    60A      0.511408  
      61A      0.537801    62A      0.709810    63A      0.714307  
      64A      0.734448    65A      0.745091    66A      0.756699  
      67A      0.771336    68A      0.788276    69A      0.815816  
      70A      0.845715    71A      0.852698    72A      0.897331  
      73A      0.920669    74A      0.927083    75A      0.933818  
      76A      0.967776    77A      0.986869    78A      0.996255  
      79A      1.010527    80A      1.016577    81A      1.045552  
      82A      1.052764    83A      1.089919    84A      1.113222  
      85A      1.122874    86A      1.142915    87A      1.152134  
      88A      1.160558    89A      1.168526    90A      1.175026  
      91A      1.184001    92A      1.197037    93A      1.209737  
      94A      1.222178    95A      1.235227    96A      1.239530  
      97A      1.248877    98A      1.250983    99A      1.271264  
     100A      1.285616   101A      1.334880   102A      1.342118  
     103A      1.369695   104A      1.434169   105A      1.465444  
     106A      1.471403   107A      1.546328   108A      1.560568  
     109A      1.674651   110A      1.708026   111A      1.719101  
     112A      1.773512   113A      1.806340   114A      1.835318  
     115A      1.908330   116A      1.946037   117A      1.967031  
     118A      2.022811   119A      2.040298   120A      2.073846  
     121A      2.086055   122A      2.127807   123A      2.141201  
     124A      2.166084   125A      2.222548   126A      2.235704  
     127A      2.241646   128A      2.246834   129A      2.280626  
     130A      2.299202   131A      2.333818   132A      2.354611  
     133A      2.383502   134A      2.417066   135A      2.432418  
     136A      2.520984   137A      2.563722   138A      2.585603  
     139A      2.597895   140A      2.615713   141A      2.656164  
     142A      2.708354   143A      2.723179   144A      2.728473  
     145A      2.752761   146A      2.767652   147A      2.807082  
     148A      2.837553   149A      2.896334   150A      2.953925  
     151A      2.977323   152A      3.022506   153A      3.028170  
     154A      3.031755   155A      3.105799   156A      3.194146  
     157A      3.376630   158A      3.395563   159A      4.453885  
     160A      4.547080   161A      4.614600   162A      4.699619  
     163A      4.756956   164A      4.835865   165A      4.939345  
     166A      5.005736   167A      5.057517  

    Final Occupation by Irrep:
              A 
    DOCC [    36 ]

  Energy converged.

  @DF-RHF Final Energy:  -386.98521690057009

   => Energetics <=

    Nuclear Repulsion Energy =            482.1747382297687636
    One-Electron Energy =               -1480.4675404799859280
    Two-Electron Energy =                 611.3075853496450236
    DFT Exchange-Correlation Energy =       0.0000000000000000
    Empirical Dispersion Energy =           0.0000000000000000
    PCM Polarization Energy =               0.0000000000000000
    EFP Energy =                            0.0000000000000000
    Total Energy =                       -386.9852169005721407

    Alert: EFP and PCM quantities not currently incorporated into SCF psivars.

Properties will be evaluated at   0.000000,   0.000000,   0.000000 Bohr
  ==> Properties <==


Properties computed using the SCF density matrix

  Nuclear Dipole Moment: (a.u.)
     X:     4.3145      Y:    -5.8734      Z:    -6.6381

  Electronic Dipole Moment: (a.u.)
     X:    -4.0402      Y:     5.5143      Z:     5.6595

  Dipole Moment: (a.u.)
     X:     0.2742      Y:    -0.3591      Z:    -0.9786     Total:     1.0779

  Dipole Moment: (Debye)
     X:     0.6971      Y:    -0.9127      Z:    -2.4873     Total:     2.7397


  Saving occupied orbitals to File 180.

*** tstop() called on cx1-1-2-1.cx1.hpc.ic.ac.uk at Tue Jul  5 18:01:22 2016
Module time:
	user time   =      25.60 seconds =       0.43 minutes
	system time =       0.23 seconds =       0.00 minutes
	total time  =         26 seconds =       0.43 minutes
Total time:
	user time   =      25.60 seconds =       0.43 minutes
	system time =       0.23 seconds =       0.00 minutes
	total time  =         26 seconds =       0.43 minutes


Properties will be evaluated at   0.000000,   0.000000,   0.000000 Bohr

Properties computed using the  density matrix

  Nuclear Dipole Moment: (a.u.)
     X:     4.3145      Y:    -5.8734      Z:    -6.6381

  Electronic Dipole Moment: (a.u.)
     X:    -4.0402      Y:     5.5143      Z:     5.6595

  Dipole Moment: (a.u.)
     X:     0.2742      Y:    -0.3591      Z:    -0.9786     Total:     1.0779

  Dipole Moment: (Debye)
     X:     0.6971      Y:    -0.9127      Z:    -2.4873     Total:     2.7397

  Quadrupole Moment: (Debye Ang)
    XX:   -59.1833     YY:   -60.8404     ZZ:   -63.5103
    XY:     2.6698     XZ:     4.7892     YZ:    -6.9789

  Traceless Quadrupole Moment: (Debye Ang)
    XX:     1.9947     YY:     0.3376     ZZ:    -2.3323
    XY:     2.6698     XZ:     4.7892     YZ:    -6.9789

  Mulliken Charges: (a.u.)
   Center  Symbol    Alpha    Beta     Spin     Total
       1     O     4.26343  4.26343  0.00000 -0.52686
       2     C     2.72686  2.72686  0.00000  0.54628
       3     C     3.24201  3.24201  0.00000 -0.48402
       4     C     3.29221  3.29221  0.00000 -0.58443
       5     C     3.17184  3.17184  0.00000 -0.34368
       6     H     0.38300  0.38300  0.00000  0.23399
       7     H     0.39480  0.39480  0.00000  0.21041
       8     C     3.15613  3.15613  0.00000 -0.31225
       9     H     0.41506  0.41506  0.00000  0.16988
      10     H     0.39191  0.39191  0.00000  0.21618
      11     C     3.15201  3.15201  0.00000 -0.30403
      12     H     0.41851  0.41851  0.00000  0.16297
      13     H     0.41695  0.41695  0.00000  0.16610
      14     C     3.16089  3.16089  0.00000 -0.32178
      15     H     0.42220  0.42220  0.00000  0.15559
      16     H     0.41877  0.41877  0.00000  0.16246
      17     C     3.24846  3.24846  0.00000 -0.49692
      18     H     0.42490  0.42490  0.00000  0.15019
      19     H     0.41452  0.41452  0.00000  0.17096
      20     H     0.42309  0.42309  0.00000  0.15383
      21     H     0.42335  0.42335  0.00000  0.15331
      22     H     0.42378  0.42378  0.00000  0.15244
      23     H     0.41025  0.41025  0.00000  0.17949
      24     H     0.39633  0.39633  0.00000  0.20734
      25     H     0.40873  0.40873  0.00000  0.18255

   Total alpha = 36.00000, Total beta = 36.00000, Total charge =  0.00000


*** PSI4 exiting successfully. Buy a developer a beer!
