    -----------------------------------------------------------------------
          Psi4: An Open-Source Ab Initio Electronic Structure Package
                              Psi4 (no tag) Driver

                          Git: Rev {detached?}  

    J. M. Turney, A. C. Simmonett, R. M. Parrish, E. G. Hohenstein,
    F. A. Evangelista, J. T. Fermann, B. J. Mintz, L. A. Burns, J. J. Wilke,
    M. L. Abrams, N. J. Russ, M. L. Leininger, C. L. Janssen, E. T. Seidl,
    W. D. Allen, H. F. Schaefer, R. A. King, E. F. Valeev, C. D. Sherrill,
    and T. D. Crawford, WIREs Comput. Mol. Sci. 2, 556-565 (2012)
    (doi: 10.1002/wcms.93)

                         Additional Contributions by
    A. E. DePrince, M. Saitow, U. Bozkaya, A. Yu. Sokolov
    -----------------------------------------------------------------------


    Psi4 started on: Tue Jul  5 16:40:52 2016

    Process ID:   5659
    PSI4DATADIR: /export131/home/mjharvey/miniconda3/share
    Memory level set to 256.000 MB

  ==> Input File <==

--------------------------------------------------------------------------
set {
	reference rhf
	basis 6-31G*
}


set_num_threads( 1 )
memory 2 gb

molecule MOL {
0 1

H	 -2.281722	 -0.135500	 0.666584
C	 -1.929622	 -0.601482	 -0.248865
O	 -0.774054	 0.001095	 -0.743181
H	 -2.690668	 -0.476097	 -1.007428
H	 -1.799320	 -1.664614	 -0.070078
C	 0.406953	 0.000033	 0.038965
C	 1.527284	 -0.003667	 -0.998752
C	 0.498933	 1.262172	 0.902524
C	 0.494271	 -1.259566	 0.906664
H	 1.452513	 0.873252	 -1.631882
H	 1.448863	 -0.881882	 -1.629595
H	 2.502020	 -0.005104	 -0.521731
H	 0.364280	 2.147110	 0.289513
H	 1.472180	 1.321775	 1.378800
H	 -0.247853	 1.275162	 1.689097
H	 0.356778	 -2.146106	 0.296587
H	 1.467182	 -1.320941	 1.383330
H	 -0.252763	 -1.267328	 1.693119

	symmetry c1
}
set optking {
	frozen_dihedral = ("
		6 3 2 5
	")
}

ee = energy('scf')
oeprop('DIPOLE', 'QUADRUPOLE', 'MULLIKEN_CHARGES')
f=open( 'psi4out.xyz', 'w' )
f.write( "18  " )
f.write( str(ee) + "\n" )
f.write( MOL.save_string_xyz() )
f.close()
--------------------------------------------------------------------------

  Memory set to   2.000 GiB by Python script.

*** tstart() called on cx1-1-4-3.cx1.hpc.ic.ac.uk
*** at Tue Jul  5 16:40:52 2016


         ---------------------------------------------------------
                                   SCF
            by Justin Turney, Rob Parrish, and Andy Simmonett
                              RHF Reference
                        1 Threads,   2000 MiB Core
         ---------------------------------------------------------

  ==> Geometry <==

    Molecular point group: c1
    Full point group: C1

    Geometry (in Angstrom), charge = 0, multiplicity = 1:

       Center              X                  Y                   Z               Mass       
    ------------   -----------------  -----------------  -----------------  -----------------
           H         -2.297596987372    -0.027532583508     0.690701952861     1.007825032070
           C         -1.945496987372    -0.493514583508    -0.224747047139    12.000000000000
           O         -0.789928987372     0.109062416492    -0.719063047139    15.994914619560
           H         -2.706542987372    -0.368129583508    -0.983310047139     1.007825032070
           H         -1.815194987372    -1.556646583508    -0.045960047139     1.007825032070
           C          0.391078012628     0.108000416492     0.063082952861    12.000000000000
           C          1.511409012628     0.104300416492    -0.974634047139    12.000000000000
           C          0.483058012628     1.370139416492     0.926641952861    12.000000000000
           C          0.478396012628    -1.151598583508     0.930781952861    12.000000000000
           H          1.436638012628     0.981219416492    -1.607764047139     1.007825032070
           H          1.432988012628    -0.773914583508    -1.605477047139     1.007825032070
           H          2.486145012628     0.102863416492    -0.497613047139     1.007825032070
           H          0.348405012628     2.255077416492     0.313630952861     1.007825032070
           H          1.456305012628     1.429742416492     1.402917952861     1.007825032070
           H         -0.263727987372     1.383129416492     1.713214952861     1.007825032070
           H          0.340903012628    -2.038138583508     0.320704952861     1.007825032070
           H          1.451307012628    -1.212973583508     1.407447952861     1.007825032070
           H         -0.268637987372    -1.159360583508     1.717236952861     1.007825032070

  Running in c1 symmetry.

  Rotational constants: A =      0.14774  B =      0.09164  C =      0.09123 [cm^-1]
  Rotational constants: A =   4429.18685  B =   2747.43648  C =   2735.09865 [MHz]
  Nuclear repulsion =  272.441398483410126

  Charge       = 0
  Multiplicity = 1
  Electrons    = 50
  Nalpha       = 25
  Nbeta        = 25

  ==> Algorithm <==

  SCF Algorithm Type is DF.
  DIIS enabled.
  MOM disabled.
  Fractional occupation disabled.
  Guess Type is CORE.
  Energy threshold   = 1.00e-06
  Density threshold  = 1.00e-06
  Integral threshold = 0.00e+00

  ==> Primary Basis <==

  Basis Set: 6-31G*
    Number of shells: 60
    Number of basis function: 114
    Number of Cartesian functions: 114
    Spherical Harmonics?: false
    Max angular momentum: 2

  ==> Pre-Iterations <==

   -------------------------------------------------------
    Irrep   Nso     Nmo     Nalpha   Nbeta   Ndocc  Nsocc
   -------------------------------------------------------
     A        114     114       0       0       0       0
   -------------------------------------------------------
    Total     114     114      25      25      25       0
   -------------------------------------------------------

 OEINTS: Overlap, kinetic, potential, dipole, and quadrupole integrals
         stored in file 35.

  ==> Integral Setup <==

  ==> DFJK: Density-Fitted J/K Matrices <==

    J tasked:                  Yes
    K tasked:                  Yes
    wK tasked:                  No
    OpenMP threads:              1
    Integrals threads:           1
    Memory (MB):              1430
    Algorithm:                Core
    Integral Cache:           NONE
    Schwarz Cutoff:          1E-12
    Fitting Condition:       1E-12

   => Auxiliary Basis Set <=

  Basis Set: 
    Number of shells: 252
    Number of basis function: 786
    Number of Cartesian functions: 786
    Spherical Harmonics?: false
    Max angular momentum: 3

  Minimum eigenvalue in the overlap matrix is 3.1493442105E-03.
  Using Symmetric Orthogonalization.
  SCF Guess: Core (One-Electron) Hamiltonian.

  ==> Iterations <==

                           Total Energy        Delta E     RMS |[F,P]|

   @DF-RHF iter   1:  -177.75041084061712   -1.77750e+02   9.83289e-02 
   @DF-RHF iter   2:  -221.04716359848737   -4.32968e+01   4.62961e-02 DIIS
   @DF-RHF iter   3:  -240.19613443144613   -1.91490e+01   5.94088e-02 DIIS
   @DF-RHF iter   4:  -260.78849944182764   -2.05924e+01   3.75488e-02 DIIS
   @DF-RHF iter   5:  -266.55815266737113   -5.76965e+00   2.56316e-02 DIIS
   @DF-RHF iter   6:  -270.18655173846230   -3.62840e+00   1.22372e-02 DIIS
   @DF-RHF iter   7:  -271.01940133729079   -8.32850e-01   4.70341e-03 DIIS
   @DF-RHF iter   8:  -271.15260486183945   -1.33204e-01   1.68550e-03 DIIS
   @DF-RHF iter   9:  -271.17160566025882   -1.90008e-02   3.54427e-04 DIIS
   @DF-RHF iter  10:  -271.17248711973116   -8.81459e-04   9.89422e-05 DIIS
   @DF-RHF iter  11:  -271.17259693526410   -1.09816e-04   4.11045e-05 DIIS
   @DF-RHF iter  12:  -271.17261150509501   -1.45698e-05   8.89220e-06 DIIS
   @DF-RHF iter  13:  -271.17261267420236   -1.16911e-06   1.98359e-06 DIIS
   @DF-RHF iter  14:  -271.17261272527935   -5.10770e-08   6.17681e-07 DIIS

  ==> Post-Iterations <==

    Orbital Energies (a.u.)
    -----------------------

    Doubly Occupied:                                                      

       1A    -20.545983     2A    -11.281218     3A    -11.260952  
       4A    -11.211754     5A    -11.206477     6A    -11.202396  
       7A     -1.370002     8A     -1.072779     9A     -0.950607  
      10A     -0.936541    11A     -0.911625    12A     -0.751658  
      13A     -0.657606    14A     -0.646389    15A     -0.637142  
      16A     -0.586779    17A     -0.576264    18A     -0.551057  
      19A     -0.535180    20A     -0.524752    21A     -0.515140  
      22A     -0.489743    23A     -0.486030    24A     -0.440284  
      25A     -0.400632  

    Virtual:                                                              

      26A      0.217324    27A      0.262802    28A      0.280744  
      29A      0.285066    30A      0.302628    31A      0.313575  
      32A      0.320921    33A      0.339650    34A      0.353089  
      35A      0.356874    36A      0.364443    37A      0.374368  
      38A      0.392038    39A      0.394849    40A      0.428430  
      41A      0.440166    42A      0.480743    43A      0.701869  
      44A      0.708321    45A      0.733188    46A      0.769203  
      47A      0.775891    48A      0.809614    49A      0.833790  
      50A      0.877937    51A      0.905627    52A      0.925042  
      53A      0.941649    54A      0.984680    55A      1.012463  
      56A      1.081809    57A      1.105139    58A      1.116579  
      59A      1.144302    60A      1.154239    61A      1.170151  
      62A      1.184933    63A      1.193734    64A      1.197138  
      65A      1.218234    66A      1.225714    67A      1.229836  
      68A      1.258589    69A      1.270821    70A      1.292607  
      71A      1.313805    72A      1.434743    73A      1.470629  
      74A      1.603915    75A      1.645038    76A      1.664823  
      77A      1.673997    78A      1.724294    79A      1.889135  
      80A      1.939305    81A      2.006504    82A      2.023815  
      83A      2.056172    84A      2.114337    85A      2.181352  
      86A      2.196429    87A      2.247448    88A      2.313820  
      89A      2.401953    90A      2.406264    91A      2.454175  
      92A      2.473429    93A      2.497363    94A      2.533917  
      95A      2.583199    96A      2.594965    97A      2.612529  
      98A      2.625614    99A      2.640597   100A      2.718181  
     101A      2.770346   102A      2.783339   103A      2.927269  
     104A      2.972847   105A      3.069090   106A      3.111003  
     107A      3.279123   108A      3.339100   109A      4.419439  
     110A      4.639953   111A      4.689377   112A      4.752463  
     113A      4.765535   114A      5.087374  

    Final Occupation by Irrep:
              A 
    DOCC [    25 ]

  Energy converged.

  @DF-RHF Final Energy:  -271.17261272527935

   => Energetics <=

    Nuclear Repulsion Energy =            272.4413984834101257
    One-Electron Energy =                -907.7300696944475931
    Two-Electron Energy =                 364.1160584857577760
    DFT Exchange-Correlation Energy =       0.0000000000000000
    Empirical Dispersion Energy =           0.0000000000000000
    PCM Polarization Energy =               0.0000000000000000
    EFP Energy =                            0.0000000000000000
    Total Energy =                       -271.1726127252796914

    Alert: EFP and PCM quantities not currently incorporated into SCF psivars.

Properties will be evaluated at   0.000000,   0.000000,   0.000000 Bohr
  ==> Properties <==


Properties computed using the SCF density matrix

  Nuclear Dipole Moment: (a.u.)
     X:     1.4971      Y:    -0.9226      Z:     2.6456

  Electronic Dipole Moment: (a.u.)
     X:    -1.4956      Y:     0.6699      Z:    -2.1702

  Dipole Moment: (a.u.)
     X:     0.0014      Y:    -0.2527      Z:     0.4754     Total:     0.5384

  Dipole Moment: (Debye)
     X:     0.0036      Y:    -0.6422      Z:     1.2084     Total:     1.3685


  Saving occupied orbitals to File 180.

*** tstop() called on cx1-1-4-3.cx1.hpc.ic.ac.uk at Tue Jul  5 16:41:02 2016
Module time:
	user time   =       8.81 seconds =       0.15 minutes
	system time =       0.06 seconds =       0.00 minutes
	total time  =         10 seconds =       0.17 minutes
Total time:
	user time   =       8.81 seconds =       0.15 minutes
	system time =       0.06 seconds =       0.00 minutes
	total time  =         10 seconds =       0.17 minutes


Properties will be evaluated at   0.000000,   0.000000,   0.000000 Bohr

Properties computed using the  density matrix

  Nuclear Dipole Moment: (a.u.)
     X:     1.4971      Y:    -0.9226      Z:     2.6456

  Electronic Dipole Moment: (a.u.)
     X:    -1.4956      Y:     0.6699      Z:    -2.1702

  Dipole Moment: (a.u.)
     X:     0.0014      Y:    -0.2527      Z:     0.4754     Total:     0.5384

  Dipole Moment: (Debye)
     X:     0.0036      Y:    -0.6422      Z:     1.2084     Total:     1.3685

  Quadrupole Moment: (Debye Ang)
    XX:   -37.5451     YY:   -39.8506     ZZ:   -41.3160
    XY:     1.1835     XZ:    -0.5642     YZ:     0.3749

  Traceless Quadrupole Moment: (Debye Ang)
    XX:     2.0255     YY:    -0.2800     ZZ:    -1.7455
    XY:     1.1835     XZ:    -0.5642     YZ:     0.3749

  Mulliken Charges: (a.u.)
   Center  Symbol    Alpha    Beta     Spin     Total
       1     H     0.43121  0.43121  0.00000  0.13759
       2     C     3.07851  3.07851  0.00000 -0.15702
       3     O     4.32134  4.32134  0.00000 -0.64267
       4     H     0.41247  0.41247  0.00000  0.17505
       5     H     0.42785  0.42785  0.00000  0.14429
       6     C     2.83880  2.83880  0.00000  0.32241
       7     C     3.23143  3.23143  0.00000 -0.46286
       8     C     3.23940  3.23940  0.00000 -0.47881
       9     C     3.25887  3.25887  0.00000 -0.51774
      10     H     0.41375  0.41375  0.00000  0.17249
      11     H     0.41643  0.41643  0.00000  0.16714
      12     H     0.42631  0.42631  0.00000  0.14738
      13     H     0.41295  0.41295  0.00000  0.17410
      14     H     0.42270  0.42270  0.00000  0.15460
      15     H     0.42123  0.42123  0.00000  0.15755
      16     H     0.41377  0.41377  0.00000  0.17247
      17     H     0.41557  0.41557  0.00000  0.16886
      18     H     0.41742  0.41742  0.00000  0.16516

   Total alpha = 25.00000, Total beta = 25.00000, Total charge = -0.00000


*** PSI4 exiting successfully. Buy a developer a beer!
