    -----------------------------------------------------------------------
          Psi4: An Open-Source Ab Initio Electronic Structure Package
                              Psi4 (no tag) Driver

                          Git: Rev {detached?}  

    J. M. Turney, A. C. Simmonett, R. M. Parrish, E. G. Hohenstein,
    F. A. Evangelista, J. T. Fermann, B. J. Mintz, L. A. Burns, J. J. Wilke,
    M. L. Abrams, N. J. Russ, M. L. Leininger, C. L. Janssen, E. T. Seidl,
    W. D. Allen, H. F. Schaefer, R. A. King, E. F. Valeev, C. D. Sherrill,
    and T. D. Crawford, WIREs Comput. Mol. Sci. 2, 556-565 (2012)
    (doi: 10.1002/wcms.93)

                         Additional Contributions by
    A. E. DePrince, M. Saitow, U. Bozkaya, A. Yu. Sokolov
    -----------------------------------------------------------------------


    Psi4 started on: Tue Jul  5 16:46:30 2016

    Process ID:  18577
    PSI4DATADIR: /export131/home/mjharvey/miniconda3/share
    Memory level set to 256.000 MB

  ==> Input File <==

--------------------------------------------------------------------------
set {
	reference rhf
	basis 6-31G*
}


set_num_threads( 1 )
memory 2 gb

molecule MOL {
0 1

H	 -3.571158	 0.540474	 0.139285
O	 -3.106200	 -0.271124	 -0.011510
C	 -1.775819	 -0.076055	 -0.001477
C	 -0.878677	 -1.063189	 -0.398593
C	 -1.315493	 1.163378	 0.425105
H	 -1.243782	 -2.021100	 -0.727859
C	 0.475971	 -0.806711	 -0.367491
H	 -2.027174	 1.908372	 0.726382
C	 0.042268	 1.404767	 0.450618
H	 1.179440	 -1.559092	 -0.671062
C	 0.952832	 0.429250	 0.057087
H	 0.399515	 2.365085	 0.781110
C	 2.403165	 0.702153	 0.089775
O	 2.888376	 1.775158	 0.274138
H	 3.041483	 -0.172869	 -0.071636

	symmetry c1
}
set optking {
	frozen_dihedral = ("
		7 11 13 14
	")
}

ee = energy('scf')
oeprop('DIPOLE', 'QUADRUPOLE', 'MULLIKEN_CHARGES')
f=open( 'psi4out.xyz', 'w' )
f.write( "15  " )
f.write( str(ee) + "\n" )
f.write( MOL.save_string_xyz() )
f.close()
--------------------------------------------------------------------------

  Memory set to   2.000 GiB by Python script.

*** tstart() called on cx1-1-3-3.cx1.hpc.ic.ac.uk
*** at Tue Jul  5 16:46:31 2016


         ---------------------------------------------------------
                                   SCF
            by Justin Turney, Rob Parrish, and Andy Simmonett
                              RHF Reference
                        1 Threads,   2000 MiB Core
         ---------------------------------------------------------

  ==> Geometry <==

    Molecular point group: c1
    Full point group: C1

    Geometry (in Angstrom), charge = 0, multiplicity = 1:

       Center              X                  Y                   Z               Mass       
    ------------   -----------------  -----------------  -----------------  -----------------
           H         -3.514845689891     0.162152128743     0.078331249840     1.007825032070
           O         -3.049887689891    -0.649445871257    -0.072463750160    15.994914619560
           C         -1.719506689891    -0.454376871257    -0.062430750160    12.000000000000
           C         -0.822364689891    -1.441510871257    -0.459546750160    12.000000000000
           C         -1.259180689891     0.785056128743     0.364151249840    12.000000000000
           H         -1.187469689891    -2.399421871257    -0.788812750160     1.007825032070
           C          0.532283310109    -1.185032871257    -0.428444750160    12.000000000000
           H         -1.970861689891     1.530050128743     0.665428249840     1.007825032070
           C          0.098580310109     1.026445128743     0.389664249840    12.000000000000
           H          1.235752310109    -1.937413871257    -0.732015750160     1.007825032070
           C          1.009144310109     0.050928128743    -0.003866750160    12.000000000000
           H          0.455827310109     1.986763128743     0.720156249840     1.007825032070
           C          2.459477310109     0.323831128743     0.028821249840    12.000000000000
           O          2.944688310109     1.396836128743     0.213184249840    15.994914619560
           H          3.097795310109    -0.551190871257    -0.132589750160     1.007825032070

  Running in c1 symmetry.

  Rotational constants: A =      0.17061  B =      0.03371  C =      0.02818 [cm^-1]
  Rotational constants: A =   5114.88632  B =   1010.53839  C =    844.67764 [MHz]
  Nuclear repulsion =  401.454865760322150

  Charge       = 0
  Multiplicity = 1
  Electrons    = 64
  Nalpha       = 32
  Nbeta        = 32

  ==> Algorithm <==

  SCF Algorithm Type is DF.
  DIIS enabled.
  MOM disabled.
  Fractional occupation disabled.
  Guess Type is CORE.
  Energy threshold   = 1.00e-06
  Density threshold  = 1.00e-06
  Integral threshold = 0.00e+00

  ==> Primary Basis <==

  Basis Set: 6-31G*
    Number of shells: 66
    Number of basis function: 147
    Number of Cartesian functions: 147
    Spherical Harmonics?: false
    Max angular momentum: 2

  ==> Pre-Iterations <==

   -------------------------------------------------------
    Irrep   Nso     Nmo     Nalpha   Nbeta   Ndocc  Nsocc
   -------------------------------------------------------
     A        147     147       0       0       0       0
   -------------------------------------------------------
    Total     147     147      32      32      32       0
   -------------------------------------------------------

 OEINTS: Overlap, kinetic, potential, dipole, and quadrupole integrals
         stored in file 35.

  ==> Integral Setup <==

  ==> DFJK: Density-Fitted J/K Matrices <==

    J tasked:                  Yes
    K tasked:                  Yes
    wK tasked:                  No
    OpenMP threads:              1
    Integrals threads:           1
    Memory (MB):              1430
    Algorithm:                Core
    Integral Cache:           NONE
    Schwarz Cutoff:          1E-12
    Fitting Condition:       1E-12

   => Auxiliary Basis Set <=

  Basis Set: 
    Number of shells: 270
    Number of basis function: 879
    Number of Cartesian functions: 879
    Spherical Harmonics?: false
    Max angular momentum: 3

  Minimum eigenvalue in the overlap matrix is 4.0569203318E-04.
  Using Symmetric Orthogonalization.
  SCF Guess: Core (One-Electron) Hamiltonian.

  ==> Iterations <==

                           Total Energy        Delta E     RMS |[F,P]|

   @DF-RHF iter   1:  -343.02791890524134   -3.43028e+02   6.07419e-02 
   @DF-RHF iter   2:  -202.10576591634208    1.40922e+02   7.47432e-02 DIIS
   @DF-RHF iter   3:  -324.46859165045146   -1.22363e+02   5.01333e-02 DIIS
   @DF-RHF iter   4:  -321.36294706714909    3.10564e+00   5.54731e-02 DIIS
   @DF-RHF iter   5:  -417.20636725184102   -9.58434e+01   1.01214e-02 DIIS
   @DF-RHF iter   6:  -417.78614750421275   -5.79780e-01   7.47033e-03 DIIS
   @DF-RHF iter   7:  -418.26386757677926   -4.77720e-01   1.05989e-03 DIIS
   @DF-RHF iter   8:  -418.28245521975532   -1.85876e-02   3.57049e-04 DIIS
   @DF-RHF iter   9:  -418.28560094792317   -3.14573e-03   1.56126e-04 DIIS
   @DF-RHF iter  10:  -418.28661798671180   -1.01704e-03   7.71714e-05 DIIS
   @DF-RHF iter  11:  -418.28698210705249   -3.64120e-04   3.44421e-05 DIIS
   @DF-RHF iter  12:  -418.28704075752353   -5.86505e-05   1.33260e-05 DIIS
   @DF-RHF iter  13:  -418.28705092429323   -1.01668e-05   5.07348e-06 DIIS
   @DF-RHF iter  14:  -418.28705138416024   -4.59867e-07   1.78730e-06 DIIS
   @DF-RHF iter  15:  -418.28705146006598   -7.59057e-08   6.60392e-07 DIIS

  ==> Post-Iterations <==

    Orbital Energies (a.u.)
    -----------------------

    Doubly Occupied:                                                      

       1A    -20.608843     2A    -20.556565     3A    -11.328510  
       4A    -11.324337     5A    -11.262127     6A    -11.256820  
       7A    -11.242507     8A    -11.242312     9A    -11.239380  
      10A     -1.431447    11A     -1.397622    12A     -1.171072  
      13A     -1.042669    14A     -1.038156    15A     -0.889064  
      16A     -0.866991    17A     -0.796089    18A     -0.758652  
      19A     -0.715303    20A     -0.665935    21A     -0.641654  
      22A     -0.631608    23A     -0.609884    24A     -0.607981  
      25A     -0.582817    26A     -0.556452    27A     -0.548295  
      28A     -0.504680    29A     -0.484198    30A     -0.419142  
      31A     -0.358607    32A     -0.327039  

    Virtual:                                                              

      33A      0.096194    34A      0.127281    35A      0.207484  
      36A      0.229174    37A      0.240854    38A      0.267485  
      39A      0.301195    40A      0.322953    41A      0.332768  
      42A      0.376487    43A      0.413488    44A      0.430668  
      45A      0.452215    46A      0.497975    47A      0.527356  
      48A      0.553744    49A      0.574267    50A      0.697812  
      51A      0.719747    52A      0.729141    53A      0.747145  
      54A      0.751185    55A      0.768365    56A      0.778691  
      57A      0.807088    58A      0.808837    59A      0.822409  
      60A      0.854802    61A      0.866066    62A      0.888215  
      63A      0.890705    64A      0.934777    65A      0.994289  
      66A      0.994706    67A      1.016797    68A      1.054782  
      69A      1.075958    70A      1.102207    71A      1.105374  
      72A      1.117224    73A      1.132752    74A      1.170563  
      75A      1.180372    76A      1.202249    77A      1.214306  
      78A      1.226276    79A      1.239461    80A      1.291993  
      81A      1.306925    82A      1.337229    83A      1.364547  
      84A      1.413238    85A      1.436331    86A      1.472931  
      87A      1.480136    88A      1.513323    89A      1.574873  
      90A      1.610091    91A      1.652607    92A      1.654843  
      93A      1.713687    94A      1.717181    95A      1.726723  
      96A      1.769665    97A      1.831650    98A      1.847475  
      99A      1.918649   100A      2.023071   101A      2.034228  
     102A      2.044567   103A      2.067357   104A      2.075785  
     105A      2.150525   106A      2.170428   107A      2.222257  
     108A      2.245150   109A      2.261217   110A      2.302318  
     111A      2.352992   112A      2.373954   113A      2.394417  
     114A      2.402999   115A      2.452065   116A      2.455900  
     117A      2.569266   118A      2.603020   119A      2.631096  
     120A      2.642267   121A      2.679249   122A      2.734240  
     123A      2.757010   124A      2.836614   125A      2.877217  
     126A      2.949896   127A      2.963386   128A      2.998699  
     129A      3.020231   130A      3.037370   131A      3.100032  
     132A      3.180915   133A      3.256060   134A      3.301994  
     135A      3.357448   136A      3.403330   137A      3.559835  
     138A      3.832400   139A      4.327308   140A      4.355696  
     141A      4.515283   142A      4.531005   143A      4.583899  
     144A      4.680441   145A      4.740243   146A      4.894164  
     147A      5.176905  

    Final Occupation by Irrep:
              A 
    DOCC [    32 ]

  Energy converged.

  @DF-RHF Final Energy:  -418.28705146006598

   => Energetics <=

    Nuclear Repulsion Energy =            401.4548657603221500
    One-Electron Energy =               -1365.2703551638132922
    Two-Electron Energy =                 545.5284379434249331
    DFT Exchange-Correlation Energy =       0.0000000000000000
    Empirical Dispersion Energy =           0.0000000000000000
    PCM Polarization Energy =               0.0000000000000000
    EFP Energy =                            0.0000000000000000
    Total Energy =                       -418.2870514600662091

    Alert: EFP and PCM quantities not currently incorporated into SCF psivars.

Properties will be evaluated at   0.000000,   0.000000,   0.000000 Bohr
  ==> Properties <==


Properties computed using the SCF density matrix

  Nuclear Dipole Moment: (a.u.)
     X:    -1.7665      Y:    -1.1299      Z:    -0.1770

  Electronic Dipole Moment: (a.u.)
     X:     0.7425      Y:     0.7085      Z:     0.1158

  Dipole Moment: (a.u.)
     X:    -1.0240      Y:    -0.4214      Z:    -0.0611     Total:     1.1090

  Dipole Moment: (Debye)
     X:    -2.6028      Y:    -1.0710      Z:    -0.1554     Total:     2.8188


  Saving occupied orbitals to File 180.

*** tstop() called on cx1-1-3-3.cx1.hpc.ic.ac.uk at Tue Jul  5 16:46:49 2016
Module time:
	user time   =      17.40 seconds =       0.29 minutes
	system time =       0.09 seconds =       0.00 minutes
	total time  =         18 seconds =       0.30 minutes
Total time:
	user time   =      17.40 seconds =       0.29 minutes
	system time =       0.09 seconds =       0.00 minutes
	total time  =         18 seconds =       0.30 minutes


Properties will be evaluated at   0.000000,   0.000000,   0.000000 Bohr

Properties computed using the  density matrix

  Nuclear Dipole Moment: (a.u.)
     X:    -1.7665      Y:    -1.1299      Z:    -0.1770

  Electronic Dipole Moment: (a.u.)
     X:     0.7425      Y:     0.7085      Z:     0.1158

  Dipole Moment: (a.u.)
     X:    -1.0240      Y:    -0.4214      Z:    -0.0611     Total:     1.1090

  Dipole Moment: (Debye)
     X:    -2.6028      Y:    -1.0710      Z:    -0.1554     Total:     2.8188

  Quadrupole Moment: (Debye Ang)
    XX:   -54.0930     YY:   -51.2730     ZZ:   -53.1737
    XY:   -14.2801     XZ:    -2.7447     YZ:     2.1580

  Traceless Quadrupole Moment: (Debye Ang)
    XX:    -1.2464     YY:     1.5735     ZZ:    -0.3271
    XY:   -14.2801     XZ:    -2.7447     YZ:     2.1580

  Mulliken Charges: (a.u.)
   Center  Symbol    Alpha    Beta     Spin     Total
       1     H     0.26662  0.26662  0.00000  0.46676
       2     O     4.37634  4.37634  0.00000 -0.75267
       3     C     2.77641  2.77641  0.00000  0.44719
       4     C     3.13054  3.13054  0.00000 -0.26107
       5     C     3.15221  3.15221  0.00000 -0.30443
       6     H     0.38745  0.38745  0.00000  0.22510
       7     C     3.09063  3.09063  0.00000 -0.18127
       8     H     0.39833  0.39833  0.00000  0.20333
       9     C     3.07851  3.07851  0.00000 -0.15701
      10     H     0.38865  0.38865  0.00000  0.22270
      11     C     3.06815  3.06815  0.00000 -0.13631
      12     H     0.37614  0.37614  0.00000  0.24773
      13     C     2.83158  2.83158  0.00000  0.33684
      14     O     4.25330  4.25330  0.00000 -0.50661
      15     H     0.42514  0.42514  0.00000  0.14972

   Total alpha = 32.00000, Total beta = 32.00000, Total charge =  0.00000


*** PSI4 exiting successfully. Buy a developer a beer!
