    -----------------------------------------------------------------------
          Psi4: An Open-Source Ab Initio Electronic Structure Package
                              Psi4 (no tag) Driver

                          Git: Rev {detached?}  

    J. M. Turney, A. C. Simmonett, R. M. Parrish, E. G. Hohenstein,
    F. A. Evangelista, J. T. Fermann, B. J. Mintz, L. A. Burns, J. J. Wilke,
    M. L. Abrams, N. J. Russ, M. L. Leininger, C. L. Janssen, E. T. Seidl,
    W. D. Allen, H. F. Schaefer, R. A. King, E. F. Valeev, C. D. Sherrill,
    and T. D. Crawford, WIREs Comput. Mol. Sci. 2, 556-565 (2012)
    (doi: 10.1002/wcms.93)

                         Additional Contributions by
    A. E. DePrince, M. Saitow, U. Bozkaya, A. Yu. Sokolov
    -----------------------------------------------------------------------


    Psi4 started on: Tue Jul  5 16:38:13 2016

    Process ID:  15932
    PSI4DATADIR: /export131/home/mjharvey/miniconda3/share
    Memory level set to 256.000 MB

  ==> Input File <==

--------------------------------------------------------------------------
set {
	reference rhf
	basis 6-31G*
}


set_num_threads( 1 )
memory 2 gb

molecule MOL {
0 1

O	 0.968737	 -0.101610	 -0.705824
C	 0.028650	 0.075053	 -0.000277
C	 -1.233602	 -0.752807	 0.000328
O	 -0.033267	 1.047919	 0.899501
C	 -2.501530	 0.091881	 0.000126
H	 -1.193807	 -1.406641	 -0.865785
H	 -1.193516	 -1.405779	 0.867015
H	 -2.545121	 0.729328	 -0.874513
H	 -3.377167	 -0.548497	 0.000561
H	 -2.544818	 0.730135	 0.874258
C	 -0.760404	 2.209192	 0.541306
H	 -0.326837	 2.674308	 -0.332250
H	 -0.694178	 2.872141	 1.389820
H	 -1.792650	 1.963328	 0.337610

	symmetry c1
}
set optking {
	frozen_dihedral = ("
		4 2 3 6
	")
}

ee = energy('scf')
oeprop('DIPOLE', 'QUADRUPOLE', 'MULLIKEN_CHARGES')
f=open( 'psi4out.xyz', 'w' )
f.write( "14  " )
f.write( str(ee) + "\n" )
f.write( MOL.save_string_xyz() )
f.close()
--------------------------------------------------------------------------

  Memory set to   2.000 GiB by Python script.

*** tstart() called on cx1-1-4-4.cx1.hpc.ic.ac.uk
*** at Tue Jul  5 16:38:13 2016


         ---------------------------------------------------------
                                   SCF
            by Justin Turney, Rob Parrish, and Andy Simmonett
                              RHF Reference
                        1 Threads,   2000 MiB Core
         ---------------------------------------------------------

  ==> Geometry <==

    Molecular point group: c1
    Full point group: C1

    Geometry (in Angstrom), charge = 0, multiplicity = 1:

       Center              X                  Y                   Z               Mass       
    ------------   -----------------  -----------------  -----------------  -----------------
           O          1.564006395688    -0.558930351031    -0.830786916859    15.994914619560
           C          0.623919395688    -0.382267351031    -0.125239916859    12.000000000000
           C         -0.638332604312    -1.210127351031    -0.124634916859    12.000000000000
           O          0.562002395688     0.590598648969     0.774538083141    15.994914619560
           C         -1.906260604312    -0.365439351031    -0.124836916859    12.000000000000
           H         -0.598537604312    -1.863961351031    -0.990747916859     1.007825032070
           H         -0.598246604312    -1.863099351031     0.742052083141     1.007825032070
           H         -1.949851604312     0.272007648969    -0.999475916859     1.007825032070
           H         -2.781897604312    -1.005817351031    -0.124401916859     1.007825032070
           H         -1.949548604312     0.272814648969     0.749295083141     1.007825032070
           C         -0.165134604312     1.751871648969     0.416343083141    12.000000000000
           H          0.268432395688     2.216987648969    -0.457212916859     1.007825032070
           H         -0.098908604312     2.414820648969     1.264857083141     1.007825032070
           H         -1.197380604312     1.506007648969     0.212647083141     1.007825032070

  Running in c1 symmetry.

  Rotational constants: A =      0.14489  B =      0.12779  C =      0.07722 [cm^-1]
  Rotational constants: A =   4343.82578  B =   3831.16614  C =   2315.04694 [MHz]
  Nuclear repulsion =  253.919620486346361

  Charge       = 0
  Multiplicity = 1
  Electrons    = 48
  Nalpha       = 24
  Nbeta        = 24

  ==> Algorithm <==

  SCF Algorithm Type is DF.
  DIIS enabled.
  MOM disabled.
  Fractional occupation disabled.
  Guess Type is CORE.
  Energy threshold   = 1.00e-06
  Density threshold  = 1.00e-06
  Integral threshold = 0.00e+00

  ==> Primary Basis <==

  Basis Set: 6-31G*
    Number of shells: 52
    Number of basis function: 106
    Number of Cartesian functions: 106
    Spherical Harmonics?: false
    Max angular momentum: 2

  ==> Pre-Iterations <==

   -------------------------------------------------------
    Irrep   Nso     Nmo     Nalpha   Nbeta   Ndocc  Nsocc
   -------------------------------------------------------
     A        106     106       0       0       0       0
   -------------------------------------------------------
    Total     106     106      24      24      24       0
   -------------------------------------------------------

 OEINTS: Overlap, kinetic, potential, dipole, and quadrupole integrals
         stored in file 35.

  ==> Integral Setup <==

  ==> DFJK: Density-Fitted J/K Matrices <==

    J tasked:                  Yes
    K tasked:                  Yes
    wK tasked:                  No
    OpenMP threads:              1
    Integrals threads:           1
    Memory (MB):              1430
    Algorithm:                Core
    Integral Cache:           NONE
    Schwarz Cutoff:          1E-12
    Fitting Condition:       1E-12

   => Auxiliary Basis Set <=

  Basis Set: 
    Number of shells: 216
    Number of basis function: 686
    Number of Cartesian functions: 686
    Spherical Harmonics?: false
    Max angular momentum: 3

  Minimum eigenvalue in the overlap matrix is 3.5149237979E-03.
  Using Symmetric Orthogonalization.
  SCF Guess: Core (One-Electron) Hamiltonian.

  ==> Iterations <==

                           Total Energy        Delta E     RMS |[F,P]|

   @DF-RHF iter   1:  -237.64142527583979   -2.37641e+02   8.30313e-02 
   @DF-RHF iter   2:  -210.37864274142683    2.72628e+01   6.73677e-02 DIIS
   @DF-RHF iter   3:  -265.83634163716272   -5.54577e+01   5.85479e-02 DIIS
   @DF-RHF iter   4:  -301.67605973314505   -3.58397e+01   2.06971e-02 DIIS
   @DF-RHF iter   5:  -302.35067320895826   -6.74613e-01   2.24823e-02 DIIS
   @DF-RHF iter   6:  -305.76522529103875   -3.41455e+00   2.94209e-03 DIIS
   @DF-RHF iter   7:  -305.80996772729657   -4.47424e-02   1.62721e-03 DIIS
   @DF-RHF iter   8:  -305.82104275850213   -1.10750e-02   5.90759e-04 DIIS
   @DF-RHF iter   9:  -305.82334335555686   -2.30060e-03   2.19709e-04 DIIS
   @DF-RHF iter  10:  -305.82371104156766   -3.67686e-04   9.55578e-05 DIIS
   @DF-RHF iter  11:  -305.82376356718066   -5.25256e-05   2.06702e-05 DIIS
   @DF-RHF iter  12:  -305.82376773795329   -4.17077e-06   6.20999e-06 DIIS
   @DF-RHF iter  13:  -305.82376830008468   -5.62131e-07   2.42011e-06 DIIS
   @DF-RHF iter  14:  -305.82376844052408   -1.40439e-07   1.04718e-06 DIIS
   @DF-RHF iter  15:  -305.82376847615490   -3.56308e-08   3.96308e-07 DIIS

  ==> Post-Iterations <==

    Orbital Energies (a.u.)
    -----------------------

    Doubly Occupied:                                                      

       1A    -20.588432     2A    -20.554761     3A    -11.374298  
       4A    -11.286977     5A    -11.242051     6A    -11.236011  
       7A     -1.464601     8A     -1.368074     9A     -1.071992  
      10A     -0.990956    11A     -0.894754    12A     -0.787669  
      13A     -0.707633    14A     -0.681982    15A     -0.669972  
      16A     -0.622938    17A     -0.600550    18A     -0.578128  
      19A     -0.569118    20A     -0.527342    21A     -0.523564  
      22A     -0.484265    23A     -0.451683    24A     -0.430233  

    Virtual:                                                              

      25A      0.172817    26A      0.237707    27A      0.259585  
      28A      0.280483    29A      0.282425    30A      0.305146  
      31A      0.315661    32A      0.327489    33A      0.337423  
      34A      0.364042    35A      0.407039    36A      0.443533  
      37A      0.513466    38A      0.578074    39A      0.699885  
      40A      0.743544    41A      0.761604    42A      0.765422  
      43A      0.792611    44A      0.797522    45A      0.850630  
      46A      0.889205    47A      0.934141    48A      0.958474  
      49A      0.972998    50A      1.037775    51A      1.055897  
      52A      1.121784    53A      1.125158    54A      1.130971  
      55A      1.138404    56A      1.161569    57A      1.211826  
      58A      1.213562    59A      1.224004    60A      1.250540  
      61A      1.278628    62A      1.298957    63A      1.356248  
      64A      1.366882    65A      1.418499    66A      1.463926  
      67A      1.622174    68A      1.633020    69A      1.682520  
      70A      1.727714    71A      1.832962    72A      1.882298  
      73A      1.961332    74A      2.013566    75A      2.035569  
      76A      2.075813    77A      2.089639    78A      2.156487  
      79A      2.217258    80A      2.230912    81A      2.249728  
      82A      2.345516    83A      2.380678    84A      2.400572  
      85A      2.466918    86A      2.497708    87A      2.553695  
      88A      2.597186    89A      2.663052    90A      2.691271  
      91A      2.694509    92A      2.796423    93A      2.808634  
      94A      2.915448    95A      3.013078    96A      3.169315  
      97A      3.243194    98A      3.279059    99A      3.381635  
     100A      3.494995   101A      4.373132   102A      4.530353  
     103A      4.648813   104A      4.697883   105A      4.807398  
     106A      4.978214  

    Final Occupation by Irrep:
              A 
    DOCC [    24 ]

  Energy converged.

  @DF-RHF Final Energy:  -305.82376847615490

   => Energetics <=

    Nuclear Repulsion Energy =            253.9196204863463606
    One-Electron Energy =                -920.0708200963682657
    Two-Electron Energy =                 360.3274311338670941
    DFT Exchange-Correlation Energy =       0.0000000000000000
    Empirical Dispersion Energy =           0.0000000000000000
    PCM Polarization Energy =               0.0000000000000000
    EFP Energy =                            0.0000000000000000
    Total Energy =                       -305.8237684761547825

    Alert: EFP and PCM quantities not currently incorporated into SCF psivars.

Properties will be evaluated at   0.000000,   0.000000,   0.000000 Bohr
  ==> Properties <==


Properties computed using the SCF density matrix

  Nuclear Dipole Moment: (a.u.)
     X:    -8.3388      Y:     1.8280      Z:     0.3719

  Electronic Dipole Moment: (a.u.)
     X:     6.8603      Y:    -1.4371      Z:    -0.1080

  Dipole Moment: (a.u.)
     X:    -1.4786      Y:     0.3909      Z:     0.2639     Total:     1.5520

  Dipole Moment: (Debye)
     X:    -3.7581      Y:     0.9937      Z:     0.6707     Total:     3.9447


  Saving occupied orbitals to File 180.

*** tstop() called on cx1-1-4-4.cx1.hpc.ic.ac.uk at Tue Jul  5 16:38:20 2016
Module time:
	user time   =       6.56 seconds =       0.11 minutes
	system time =       0.04 seconds =       0.00 minutes
	total time  =          7 seconds =       0.12 minutes
Total time:
	user time   =       6.56 seconds =       0.11 minutes
	system time =       0.04 seconds =       0.00 minutes
	total time  =          7 seconds =       0.12 minutes


Properties will be evaluated at   0.000000,   0.000000,   0.000000 Bohr

Properties computed using the  density matrix

  Nuclear Dipole Moment: (a.u.)
     X:    -8.3388      Y:     1.8280      Z:     0.3719

  Electronic Dipole Moment: (a.u.)
     X:     6.8603      Y:    -1.4371      Z:    -0.1080

  Dipole Moment: (a.u.)
     X:    -1.4786      Y:     0.3909      Z:     0.2639     Total:     1.5520

  Dipole Moment: (Debye)
     X:    -3.7581      Y:     0.9937      Z:     0.6707     Total:     3.9447

  Quadrupole Moment: (Debye Ang)
    XX:   -41.5032     YY:   -32.5038     ZZ:   -38.6121
    XY:     0.7792     XZ:     1.9262     YZ:    -1.0861

  Traceless Quadrupole Moment: (Debye Ang)
    XX:    -3.9635     YY:     5.0359     ZZ:    -1.0724
    XY:     0.7792     XZ:     1.9262     YZ:    -1.0861

  Mulliken Charges: (a.u.)
   Center  Symbol    Alpha    Beta     Spin     Total
       1     O     4.25682  4.25682  0.00000 -0.51363
       2     C     2.62526  2.62526  0.00000  0.74948
       3     C     3.19724  3.19724  0.00000 -0.39448
       4     O     4.30648  4.30648  0.00000 -0.61297
       5     C     3.26998  3.26998  0.00000 -0.53995
       6     H     0.39938  0.39938  0.00000  0.20125
       7     H     0.39849  0.39849  0.00000  0.20302
       8     H     0.41066  0.41066  0.00000  0.17868
       9     H     0.40608  0.40608  0.00000  0.18783
      10     H     0.40435  0.40435  0.00000  0.19130
      11     C     3.09565  3.09565  0.00000 -0.19129
      12     H     0.40943  0.40943  0.00000  0.18114
      13     H     0.40228  0.40228  0.00000  0.19543
      14     H     0.41790  0.41790  0.00000  0.16419

   Total alpha = 24.00000, Total beta = 24.00000, Total charge = -0.00000


*** PSI4 exiting successfully. Buy a developer a beer!
