    -----------------------------------------------------------------------
          Psi4: An Open-Source Ab Initio Electronic Structure Package
                              Psi4 (no tag) Driver

                          Git: Rev {detached?}  

    J. M. Turney, A. C. Simmonett, R. M. Parrish, E. G. Hohenstein,
    F. A. Evangelista, J. T. Fermann, B. J. Mintz, L. A. Burns, J. J. Wilke,
    M. L. Abrams, N. J. Russ, M. L. Leininger, C. L. Janssen, E. T. Seidl,
    W. D. Allen, H. F. Schaefer, R. A. King, E. F. Valeev, C. D. Sherrill,
    and T. D. Crawford, WIREs Comput. Mol. Sci. 2, 556-565 (2012)
    (doi: 10.1002/wcms.93)

                         Additional Contributions by
    A. E. DePrince, M. Saitow, U. Bozkaya, A. Yu. Sokolov
    -----------------------------------------------------------------------


    Psi4 started on: Tue Jul  5 16:38:34 2016

    Process ID:  12304
    PSI4DATADIR: /export131/home/mjharvey/miniconda3/share
    Memory level set to 256.000 MB

  ==> Input File <==

--------------------------------------------------------------------------
set {
	reference rhf
	basis 6-31G*
}


set_num_threads( 1 )
memory 2 gb

molecule MOL {
0 1

O	 0.391030	 1.298905	 0.000133
C	 0.503002	 0.111612	 0.000005
C	 -0.702327	 -0.811998	 -0.000075
C	 1.863306	 -0.554493	 0.000030
C	 -0.476948	 -2.109901	 -0.766106
H	 -0.967354	 -1.015203	 1.035898
H	 -1.545403	 -0.260727	 -0.412492
H	 0.345810	 -2.672726	 -0.342411
H	 -1.368020	 -2.728057	 -0.732481
H	 -0.237366	 -1.911562	 -1.803642
H	 1.974395	 -1.189404	 -0.874166
H	 2.638695	 0.198920	 -0.000196
H	 1.974487	 -1.188655	 0.874727

	symmetry c1
}
ee = energy('scf')
oeprop('DIPOLE', 'QUADRUPOLE', 'MULLIKEN_CHARGES')
f=open( 'psi4out.xyz', 'w' )
f.write( "13  " )
f.write( str(ee) + "\n" )
f.write( MOL.save_string_xyz() )
f.close()
--------------------------------------------------------------------------

  Memory set to   2.000 GiB by Python script.

*** tstart() called on cx1-3-4-4.cx1.hpc.ic.ac.uk
*** at Tue Jul  5 16:38:35 2016


         ---------------------------------------------------------
                                   SCF
            by Justin Turney, Rob Parrish, and Andy Simmonett
                              RHF Reference
                        1 Threads,   2000 MiB Core
         ---------------------------------------------------------

  ==> Geometry <==

    Molecular point group: c1
    Full point group: C1

    Geometry (in Angstrom), charge = 0, multiplicity = 1:

       Center              X                  Y                   Z               Mass       
    ------------   -----------------  -----------------  -----------------  -----------------
           O          0.067175355854     1.721527884487     0.159228568156    15.994914619560
           C          0.179147355854     0.534234884487     0.159100568156    12.000000000000
           C         -1.026181644146    -0.389375115513     0.159020568156    12.000000000000
           C          1.539451355854    -0.131870115513     0.159125568156    12.000000000000
           C         -0.800802644146    -1.687278115513    -0.607010431844    12.000000000000
           H         -1.291208644146    -0.592580115513     1.194993568156     1.007825032070
           H         -1.869257644146     0.161895884487    -0.253396431844     1.007825032070
           H          0.021955355854    -2.250103115513    -0.183315431844     1.007825032070
           H         -1.691874644146    -2.305434115513    -0.573385431844     1.007825032070
           H         -0.561220644146    -1.488939115513    -1.644546431844     1.007825032070
           H          1.650540355854    -0.766781115513    -0.715070431844     1.007825032070
           H          2.314840355854     0.621542884487     0.158899568156     1.007825032070
           H          1.650632355854    -0.766032115513     1.033822568156     1.007825032070

  Running in c1 symmetry.

  Rotational constants: A =      0.27163  B =      0.13217  C =      0.09650 [cm^-1]
  Rotational constants: A =   8143.40234  B =   3962.49683  C =   2893.11675 [MHz]
  Nuclear repulsion =  177.718726571827460

  Charge       = 0
  Multiplicity = 1
  Electrons    = 40
  Nalpha       = 20
  Nbeta        = 20

  ==> Algorithm <==

  SCF Algorithm Type is DF.
  DIIS enabled.
  MOM disabled.
  Fractional occupation disabled.
  Guess Type is CORE.
  Energy threshold   = 1.00e-06
  Density threshold  = 1.00e-06
  Integral threshold = 0.00e+00

  ==> Primary Basis <==

  Basis Set: 6-31G*
    Number of shells: 46
    Number of basis function: 91
    Number of Cartesian functions: 91
    Spherical Harmonics?: false
    Max angular momentum: 2

  ==> Pre-Iterations <==

   -------------------------------------------------------
    Irrep   Nso     Nmo     Nalpha   Nbeta   Ndocc  Nsocc
   -------------------------------------------------------
     A         91      91       0       0       0       0
   -------------------------------------------------------
    Total      91      91      20      20      20       0
   -------------------------------------------------------

 OEINTS: Overlap, kinetic, potential, dipole, and quadrupole integrals
         stored in file 35.

  ==> Integral Setup <==

  ==> DFJK: Density-Fitted J/K Matrices <==

    J tasked:                  Yes
    K tasked:                  Yes
    wK tasked:                  No
    OpenMP threads:              1
    Integrals threads:           1
    Memory (MB):              1430
    Algorithm:                Core
    Integral Cache:           NONE
    Schwarz Cutoff:          1E-12
    Fitting Condition:       1E-12

   => Auxiliary Basis Set <=

  Basis Set: 
    Number of shells: 192
    Number of basis function: 605
    Number of Cartesian functions: 605
    Spherical Harmonics?: false
    Max angular momentum: 3

  Minimum eigenvalue in the overlap matrix is 4.0857635357E-03.
  Using Symmetric Orthogonalization.
  SCF Guess: Core (One-Electron) Hamiltonian.

  ==> Iterations <==

                           Total Energy        Delta E     RMS |[F,P]|

   @DF-RHF iter   1:  -182.24672855729312   -1.82247e+02   8.08406e-02 
   @DF-RHF iter   2:  -165.45954653369415    1.67872e+01   6.33757e-02 DIIS
   @DF-RHF iter   3:  -203.10303797276902   -3.76435e+01   5.93764e-02 DIIS
   @DF-RHF iter   4:  -228.97587172825871   -2.58728e+01   1.97214e-02 DIIS
   @DF-RHF iter   5:  -230.87013636604257   -1.89426e+00   4.79325e-03 DIIS
   @DF-RHF iter   6:  -230.98110476990786   -1.10968e-01   1.45543e-03 DIIS
   @DF-RHF iter   7:  -230.99143846000055   -1.03337e-02   3.86102e-04 DIIS
   @DF-RHF iter   8:  -230.99246163206158   -1.02317e-03   2.17371e-04 DIIS
   @DF-RHF iter   9:  -230.99273245930658   -2.70827e-04   8.15772e-05 DIIS
   @DF-RHF iter  10:  -230.99281157762749   -7.91183e-05   3.39467e-05 DIIS
   @DF-RHF iter  11:  -230.99283285515349   -2.12775e-05   1.36958e-05 DIIS
   @DF-RHF iter  12:  -230.99283733549771   -4.48034e-06   5.12189e-06 DIIS
   @DF-RHF iter  13:  -230.99283798700816   -6.51510e-07   2.30714e-06 DIIS
   @DF-RHF iter  14:  -230.99283809859890   -1.11591e-07   8.76576e-07 DIIS

  ==> Post-Iterations <==

    Orbital Energies (a.u.)
    -----------------------

    Doubly Occupied:                                                      

       1A    -20.549201     2A    -11.326381     3A    -11.234198  
       4A    -11.229009     5A    -11.227659     6A     -1.394557  
       7A     -1.073553     8A     -0.991597     9A     -0.890272  
      10A     -0.733181    11A     -0.656825    12A     -0.645326  
      13A     -0.622918    14A     -0.587991    15A     -0.553643  
      16A     -0.544815    17A     -0.532638    18A     -0.509216  
      19A     -0.479134    20A     -0.399749  

    Virtual:                                                              

      21A      0.167726    22A      0.221491    23A      0.277791  
      24A      0.281233    25A      0.297942    26A      0.304862  
      27A      0.313538    28A      0.331759    29A      0.364561  
      30A      0.386861    31A      0.410366    32A      0.482637  
      33A      0.507877    34A      0.716328    35A      0.728895  
      36A      0.734639    37A      0.774305    38A      0.821293  
      39A      0.844741    40A      0.869178    41A      0.931716  
      42A      0.975185    43A      0.981233    44A      1.014242  
      45A      1.038657    46A      1.103838    47A      1.133834  
      48A      1.145054    49A      1.154078    50A      1.163269  
      51A      1.179774    52A      1.190502    53A      1.229528  
      54A      1.246667    55A      1.286660    56A      1.320285  
      57A      1.378456    58A      1.384440    59A      1.595357  
      60A      1.672913    61A      1.698528    62A      1.800349  
      63A      1.828176    64A      1.961767    65A      2.055798  
      66A      2.081858    67A      2.094507    68A      2.147935  
      69A      2.216773    70A      2.251446    71A      2.271739  
      72A      2.312774    73A      2.357834    74A      2.450795  
      75A      2.529444    76A      2.589127    77A      2.641854  
      78A      2.662702    79A      2.719803    80A      2.749844  
      81A      2.839246    82A      2.924798    83A      2.985553  
      84A      3.121677    85A      3.372634    86A      3.397762  
      87A      4.403244    88A      4.538868    89A      4.685080  
      90A      4.768178    91A      4.960329  

    Final Occupation by Irrep:
              A 
    DOCC [    20 ]

  Energy converged.

  @DF-RHF Final Energy:  -230.99283809859890

   => Energetics <=

    Nuclear Repulsion Energy =            177.7187265718274602
    One-Electron Energy =                -665.0594648913457831
    Two-Electron Energy =                 256.3479002209192572
    DFT Exchange-Correlation Energy =       0.0000000000000000
    Empirical Dispersion Energy =           0.0000000000000000
    PCM Polarization Energy =               0.0000000000000000
    EFP Energy =                            0.0000000000000000
    Total Energy =                       -230.9928380985990657

    Alert: EFP and PCM quantities not currently incorporated into SCF psivars.

Properties will be evaluated at   0.000000,   0.000000,   0.000000 Bohr
  ==> Properties <==


Properties computed using the SCF density matrix

  Nuclear Dipole Moment: (a.u.)
     X:     0.2107      Y:    -6.9163      Z:    -0.9198

  Electronic Dipole Moment: (a.u.)
     X:    -0.1451      Y:     5.6607      Z:     0.9181

  Dipole Moment: (a.u.)
     X:     0.0656      Y:    -1.2556      Z:    -0.0018     Total:     1.2573

  Dipole Moment: (Debye)
     X:     0.1668      Y:    -3.1915      Z:    -0.0045     Total:     3.1958


  Saving occupied orbitals to File 180.

*** tstop() called on cx1-3-4-4.cx1.hpc.ic.ac.uk at Tue Jul  5 16:38:40 2016
Module time:
	user time   =       4.99 seconds =       0.08 minutes
	system time =       0.04 seconds =       0.00 minutes
	total time  =          5 seconds =       0.08 minutes
Total time:
	user time   =       4.99 seconds =       0.08 minutes
	system time =       0.04 seconds =       0.00 minutes
	total time  =          5 seconds =       0.08 minutes


Properties will be evaluated at   0.000000,   0.000000,   0.000000 Bohr

Properties computed using the  density matrix

  Nuclear Dipole Moment: (a.u.)
     X:     0.2107      Y:    -6.9163      Z:    -0.9198

  Electronic Dipole Moment: (a.u.)
     X:    -0.1451      Y:     5.6607      Z:     0.9181

  Dipole Moment: (a.u.)
     X:     0.0656      Y:    -1.2556      Z:    -0.0018     Total:     1.2573

  Dipole Moment: (Debye)
     X:     0.1668      Y:    -3.1915      Z:    -0.0045     Total:     3.1958

  Quadrupole Moment: (Debye Ang)
    XX:   -30.0096     YY:   -38.0542     ZZ:   -30.6693
    XY:     0.2298     XZ:     0.0427     YZ:    -0.6757

  Traceless Quadrupole Moment: (Debye Ang)
    XX:     2.9014     YY:    -5.1432     ZZ:     2.2418
    XY:     0.2298     XZ:     0.0427     YZ:    -0.6757

  Mulliken Charges: (a.u.)
   Center  Symbol    Alpha    Beta     Spin     Total
       1     O     4.26155  4.26155  0.00000 -0.52311
       2     C     2.73159  2.73159  0.00000  0.53682
       3     C     3.20512  3.20512  0.00000 -0.41024
       4     C     3.29545  3.29545  0.00000 -0.59091
       5     C     3.25315  3.25315  0.00000 -0.50631
       6     H     0.40449  0.40449  0.00000  0.19102
       7     H     0.39868  0.39868  0.00000  0.20263
       8     H     0.41577  0.41577  0.00000  0.16847
       9     H     0.41027  0.41027  0.00000  0.17945
      10     H     0.41410  0.41410  0.00000  0.17181
      11     H     0.40549  0.40549  0.00000  0.18902
      12     H     0.39578  0.39578  0.00000  0.20845
      13     H     0.40856  0.40856  0.00000  0.18289

   Total alpha = 20.00000, Total beta = 20.00000, Total charge = -0.00000


*** PSI4 exiting successfully. Buy a developer a beer!
