    -----------------------------------------------------------------------
          Psi4: An Open-Source Ab Initio Electronic Structure Package
                              Psi4 (no tag) Driver

                          Git: Rev {detached?}  

    J. M. Turney, A. C. Simmonett, R. M. Parrish, E. G. Hohenstein,
    F. A. Evangelista, J. T. Fermann, B. J. Mintz, L. A. Burns, J. J. Wilke,
    M. L. Abrams, N. J. Russ, M. L. Leininger, C. L. Janssen, E. T. Seidl,
    W. D. Allen, H. F. Schaefer, R. A. King, E. F. Valeev, C. D. Sherrill,
    and T. D. Crawford, WIREs Comput. Mol. Sci. 2, 556-565 (2012)
    (doi: 10.1002/wcms.93)

                         Additional Contributions by
    A. E. DePrince, M. Saitow, U. Bozkaya, A. Yu. Sokolov
    -----------------------------------------------------------------------


    Psi4 started on: Tue Jul  5 16:43:29 2016

    Process ID:   6545
    PSI4DATADIR: /export131/home/mjharvey/miniconda3/share
    Memory level set to 256.000 MB

  ==> Input File <==

--------------------------------------------------------------------------
set {
	reference rhf
	basis 6-31G*
}


set_num_threads( 1 )
memory 2 gb

molecule MOL {
0 1

H	 2.845955	 -0.323208	 0.022310
C	 1.900140	 0.071967	 -0.330070
C	 0.778463	 -0.508087	 0.517968
H	 1.782469	 -0.206877	 -1.370777
H	 1.922247	 1.149867	 -0.254252
N	 -0.540928	 0.005139	 0.058438
H	 0.716718	 -1.581298	 0.454712
H	 0.859711	 -0.198647	 1.550086
O	 -0.656550	 0.279039	 -1.095201
O	 -1.397666	 0.105989	 0.883259

	symmetry c1
}
ee = energy('scf')
oeprop('DIPOLE', 'QUADRUPOLE', 'MULLIKEN_CHARGES')
f=open( 'psi4out.xyz', 'w' )
f.write( "10  " )
f.write( str(ee) + "\n" )
f.write( MOL.save_string_xyz() )
f.close()
--------------------------------------------------------------------------

  Memory set to   2.000 GiB by Python script.

*** tstart() called on cx1-3-16-3.cx1.hpc.ic.ac.uk
*** at Tue Jul  5 16:43:30 2016


         ---------------------------------------------------------
                                   SCF
            by Justin Turney, Rob Parrish, and Andy Simmonett
                              RHF Reference
                        1 Threads,   2000 MiB Core
         ---------------------------------------------------------

  ==> Geometry <==

    Molecular point group: c1
    Full point group: C1

    Geometry (in Angstrom), charge = 0, multiplicity = 1:

       Center              X                  Y                   Z               Mass       
    ------------   -----------------  -----------------  -----------------  -----------------
           H          2.847257557446    -0.320912586523     0.021132919661     1.007825032070
           C          1.901442557446     0.074262413477    -0.331247080339    12.000000000000
           C          0.779765557446    -0.505791586523     0.516790919661    12.000000000000
           H          1.783771557446    -0.204581586523    -1.371954080339     1.007825032070
           H          1.923549557446     1.152162413477    -0.255429080339     1.007825032070
           N         -0.539625442554     0.007434413477     0.057260919661    14.003074004780
           H          0.718020557446    -1.579002586523     0.453534919661     1.007825032070
           H          0.861013557446    -0.196351586523     1.548908919661     1.007825032070
           O         -0.655247442554     0.281334413477    -1.096378080339    15.994914619560
           O         -1.396363442554     0.108284413477     0.882081919661    15.994914619560

  Running in c1 symmetry.

  Rotational constants: A =      0.36110  B =      0.14352  C =      0.11008 [cm^-1]
  Rotational constants: A =  10825.50557  B =   4302.60356  C =   3300.13802 [MHz]
  Nuclear repulsion =  186.553410399099732

  Charge       = 0
  Multiplicity = 1
  Electrons    = 40
  Nalpha       = 20
  Nbeta        = 20

  ==> Algorithm <==

  SCF Algorithm Type is DF.
  DIIS enabled.
  MOM disabled.
  Fractional occupation disabled.
  Guess Type is CORE.
  Energy threshold   = 1.00e-06
  Density threshold  = 1.00e-06
  Integral threshold = 0.00e+00

  ==> Primary Basis <==

  Basis Set: 6-31G*
    Number of shells: 40
    Number of basis function: 85
    Number of Cartesian functions: 85
    Spherical Harmonics?: false
    Max angular momentum: 2

  ==> Pre-Iterations <==

   -------------------------------------------------------
    Irrep   Nso     Nmo     Nalpha   Nbeta   Ndocc  Nsocc
   -------------------------------------------------------
     A         85      85       0       0       0       0
   -------------------------------------------------------
    Total      85      85      20      20      20       0
   -------------------------------------------------------

 OEINTS: Overlap, kinetic, potential, dipole, and quadrupole integrals
         stored in file 35.

  ==> Integral Setup <==

  ==> DFJK: Density-Fitted J/K Matrices <==

    J tasked:                  Yes
    K tasked:                  Yes
    wK tasked:                  No
    OpenMP threads:              1
    Integrals threads:           1
    Memory (MB):              1430
    Algorithm:                Core
    Integral Cache:           NONE
    Schwarz Cutoff:          1E-12
    Fitting Condition:       1E-12

   => Auxiliary Basis Set <=

  Basis Set: 
    Number of shells: 165
    Number of basis function: 530
    Number of Cartesian functions: 530
    Spherical Harmonics?: false
    Max angular momentum: 3

  Minimum eigenvalue in the overlap matrix is 3.0962239235E-03.
  Using Symmetric Orthogonalization.
  SCF Guess: Core (One-Electron) Hamiltonian.

  ==> Iterations <==

                           Total Energy        Delta E     RMS |[F,P]|

   @DF-RHF iter   1:  -233.22596857506227   -2.33226e+02   8.57051e-02 
   @DF-RHF iter   2:  -168.72961345516734    6.44964e+01   1.00797e-01 DIIS
   @DF-RHF iter   3:  -269.37481415315801   -1.00645e+02   3.44796e-02 DIIS
   @DF-RHF iter   4:  -254.49190254505680    1.48829e+01   6.33162e-02 DIIS
   @DF-RHF iter   5:  -281.60837841791272   -2.71165e+01   1.67048e-02 DIIS
   @DF-RHF iter   6:  -282.36154925945021   -7.53171e-01   9.26027e-03 DIIS
   @DF-RHF iter   7:  -282.60189447869385   -2.40345e-01   5.07363e-03 DIIS
   @DF-RHF iter   8:  -282.68757057697889   -8.56761e-02   1.46534e-03 DIIS
   @DF-RHF iter   9:  -282.69824011769219   -1.06695e-02   5.40452e-04 DIIS
   @DF-RHF iter  10:  -282.69943982505930   -1.19971e-03   2.13838e-04 DIIS
   @DF-RHF iter  11:  -282.69973446102358   -2.94636e-04   6.34135e-05 DIIS
   @DF-RHF iter  12:  -282.69977359149220   -3.91305e-05   3.58114e-05 DIIS
   @DF-RHF iter  13:  -282.69978166034014   -8.06885e-06   1.40105e-05 DIIS
   @DF-RHF iter  14:  -282.69978333470488   -1.67436e-06   3.30277e-06 DIIS
   @DF-RHF iter  15:  -282.69978347950456   -1.44800e-07   1.04043e-06 DIIS
   @DF-RHF iter  16:  -282.69978349066213   -1.11576e-08   2.83228e-07 DIIS

  ==> Post-Iterations <==

    Orbital Energies (a.u.)
    -----------------------

    Doubly Occupied:                                                      

       1A    -20.604005     2A    -20.602041     3A    -15.849782  
       4A    -11.304506     5A    -11.245982     6A     -1.633231  
       7A     -1.418894     8A     -1.126483     9A     -0.965222  
      10A     -0.834094    11A     -0.762732    12A     -0.746261  
      13A     -0.727345    14A     -0.644227    15A     -0.590507  
      16A     -0.561741    17A     -0.540646    18A     -0.486941  
      19A     -0.478607    20A     -0.450788  

    Virtual:                                                              

      21A      0.118721    22A      0.223248    23A      0.269670  
      24A      0.281882    25A      0.294608    26A      0.321613  
      27A      0.329512    28A      0.375982    29A      0.527373  
      30A      0.602647    31A      0.688908    32A      0.705639  
      33A      0.745185    34A      0.773624    35A      0.844508  
      36A      0.858082    37A      0.928955    38A      1.004871  
      39A      1.017067    40A      1.065944    41A      1.089339  
      42A      1.109577    43A      1.126514    44A      1.149952  
      45A      1.179270    46A      1.199676    47A      1.229661  
      48A      1.239133    49A      1.296515    50A      1.300358  
      51A      1.349909    52A      1.374968    53A      1.587141  
      54A      1.629650    55A      1.722694    56A      1.742059  
      57A      1.792420    58A      1.959447    59A      2.055203  
      60A      2.081034    61A      2.112022    62A      2.136092  
      63A      2.158711    64A      2.198761    65A      2.277118  
      66A      2.301602    67A      2.382965    68A      2.416460  
      69A      2.500363    70A      2.567127    71A      2.632158  
      72A      2.678921    73A      2.787787    74A      2.848696  
      75A      2.876500    76A      3.074287    77A      3.218551  
      78A      3.281831    79A      3.286308    80A      3.495431  
      81A      4.080314    82A      4.200508    83A      4.268504  
      84A      4.607197    85A      4.824364  

    Final Occupation by Irrep:
              A 
    DOCC [    20 ]

  Energy converged.

  @DF-RHF Final Energy:  -282.69978349066213

   => Energetics <=

    Nuclear Repulsion Energy =            186.5534103990997323
    One-Electron Energy =                -755.3583598743790617
    Two-Electron Energy =                 286.1051659846168036
    DFT Exchange-Correlation Energy =       0.0000000000000000
    Empirical Dispersion Energy =           0.0000000000000000
    PCM Polarization Energy =               0.0000000000000000
    EFP Energy =                            0.0000000000000000
    Total Energy =                       -282.6997834906624689

    Alert: EFP and PCM quantities not currently incorporated into SCF psivars.

Properties will be evaluated at   0.000000,   0.000000,   0.000000 Bohr
  ==> Properties <==


Properties computed using the SCF density matrix

  Nuclear Dipole Moment: (a.u.)
     X:     7.6167      Y:    -1.0750      Z:     0.3702

  Electronic Dipole Moment: (a.u.)
     X:    -6.1373      Y:     0.5615      Z:     0.0170

  Dipole Moment: (a.u.)
     X:     1.4795      Y:    -0.5135      Z:     0.3872     Total:     1.6132

  Dipole Moment: (Debye)
     X:     3.7604      Y:    -1.3052      Z:     0.9843     Total:     4.1004


  Saving occupied orbitals to File 180.

*** tstop() called on cx1-3-16-3.cx1.hpc.ic.ac.uk at Tue Jul  5 16:43:34 2016
Module time:
	user time   =       3.64 seconds =       0.06 minutes
	system time =       0.03 seconds =       0.00 minutes
	total time  =          4 seconds =       0.07 minutes
Total time:
	user time   =       3.64 seconds =       0.06 minutes
	system time =       0.03 seconds =       0.00 minutes
	total time  =          4 seconds =       0.07 minutes


Properties will be evaluated at   0.000000,   0.000000,   0.000000 Bohr

Properties computed using the  density matrix

  Nuclear Dipole Moment: (a.u.)
     X:     7.6167      Y:    -1.0750      Z:     0.3702

  Electronic Dipole Moment: (a.u.)
     X:    -6.1373      Y:     0.5615      Z:     0.0170

  Dipole Moment: (a.u.)
     X:     1.4795      Y:    -0.5135      Z:     0.3872     Total:     1.6132

  Dipole Moment: (Debye)
     X:     3.7604      Y:    -1.3052      Z:     0.9843     Total:     4.1004

  Quadrupole Moment: (Debye Ang)
    XX:   -31.4245     YY:   -27.7101     ZZ:   -32.2306
    XY:     0.3534     XZ:     1.3553     YZ:     0.3623

  Traceless Quadrupole Moment: (Debye Ang)
    XX:    -0.9695     YY:     2.7450     ZZ:    -1.7755
    XY:     0.3534     XZ:     1.3553     YZ:     0.3623

  Mulliken Charges: (a.u.)
   Center  Symbol    Alpha    Beta     Spin     Total
       1     H     0.40962  0.40962  0.00000  0.18077
       2     C     3.25314  3.25314  0.00000 -0.50628
       3     C     3.09667  3.09667  0.00000 -0.19334
       4     H     0.39410  0.39410  0.00000  0.21180
       5     H     0.40356  0.40356  0.00000  0.19288
       6     N     3.21853  3.21853  0.00000  0.56293
       7     H     0.38363  0.38363  0.00000  0.23274
       8     H     0.38508  0.38508  0.00000  0.22984
       9     O     4.22685  4.22685  0.00000 -0.45370
      10     O     4.22882  4.22882  0.00000 -0.45764

   Total alpha = 20.00000, Total beta = 20.00000, Total charge =  0.00000


*** PSI4 exiting successfully. Buy a developer a beer!
