    -----------------------------------------------------------------------
          Psi4: An Open-Source Ab Initio Electronic Structure Package
                              Psi4 (no tag) Driver

                          Git: Rev {detached?}  

    J. M. Turney, A. C. Simmonett, R. M. Parrish, E. G. Hohenstein,
    F. A. Evangelista, J. T. Fermann, B. J. Mintz, L. A. Burns, J. J. Wilke,
    M. L. Abrams, N. J. Russ, M. L. Leininger, C. L. Janssen, E. T. Seidl,
    W. D. Allen, H. F. Schaefer, R. A. King, E. F. Valeev, C. D. Sherrill,
    and T. D. Crawford, WIREs Comput. Mol. Sci. 2, 556-565 (2012)
    (doi: 10.1002/wcms.93)

                         Additional Contributions by
    A. E. DePrince, M. Saitow, U. Bozkaya, A. Yu. Sokolov
    -----------------------------------------------------------------------


    Psi4 started on: Tue Jul  5 16:27:02 2016

    Process ID:  19913
    PSI4DATADIR: /export131/home/mjharvey/miniconda3/share
    Memory level set to 256.000 MB

  ==> Input File <==

--------------------------------------------------------------------------
set {
	reference rhf
	basis 6-31G*
}


set_num_threads( 1 )
memory 2 gb

molecule MOL {
0 1

H	 2.291278	 0.705112	 -0.578770
O	 2.064459	 -0.086912	 -0.111827
C	 0.745630	 0.005118	 0.354752
H	 0.739005	 0.037656	 1.444976
C	 -0.064159	 -1.194875	 -0.122754
C	 -0.046302	 1.193543	 -0.190431
H	 0.197384	 -1.376065	 -1.160690
H	 0.162855	 -2.097978	 0.431858
C	 -1.535782	 -0.752177	 0.006642
H	 0.154512	 1.271315	 -1.255561
H	 0.226209	 2.140461	 0.267302
C	 -1.509193	 0.801505	 0.065617
H	 -2.127797	 -1.112194	 -0.826847
H	 -1.986849	 -1.158408	 0.905561
H	 -2.183670	 1.254107	 -0.651985
H	 -1.821727	 1.144320	 1.047089

	symmetry c1
}
ee = energy('scf')
oeprop('DIPOLE', 'QUADRUPOLE', 'MULLIKEN_CHARGES')
f=open( 'psi4out.xyz', 'w' )
f.write( "16  " )
f.write( str(ee) + "\n" )
f.write( MOL.save_string_xyz() )
f.close()
--------------------------------------------------------------------------

  Memory set to   2.000 GiB by Python script.

*** tstart() called on cx1-3-2-2.cx1.hpc.ic.ac.uk
*** at Tue Jul  5 16:27:02 2016


         ---------------------------------------------------------
                                   SCF
            by Justin Turney, Rob Parrish, and Andy Simmonett
                              RHF Reference
                        1 Threads,   2000 MiB Core
         ---------------------------------------------------------

  ==> Geometry <==

    Molecular point group: c1
    Full point group: C1

    Geometry (in Angstrom), charge = 0, multiplicity = 1:

       Center              X                  Y                   Z               Mass       
    ------------   -----------------  -----------------  -----------------  -----------------
           H          2.294527050492     0.704393202713    -0.569443412798     1.007825032070
           O          2.067708050492    -0.087630797287    -0.102500412798    15.994914619560
           C          0.748879050492     0.004399202713     0.364078587202    12.000000000000
           H          0.742254050492     0.036937202713     1.454302587202     1.007825032070
           C         -0.060909949508    -1.195593797287    -0.113427412798    12.000000000000
           C         -0.043052949508     1.192824202713    -0.181104412798    12.000000000000
           H          0.200633050492    -1.376783797287    -1.151363412798     1.007825032070
           H          0.166104050492    -2.098696797287     0.441184587202     1.007825032070
           C         -1.532532949508    -0.752895797287     0.015968587202    12.000000000000
           H          0.157761050492     1.270596202713    -1.246234412798     1.007825032070
           H          0.229458050492     2.139742202713     0.276628587202     1.007825032070
           C         -1.505943949508     0.800786202713     0.074943587202    12.000000000000
           H         -2.124547949508    -1.112912797287    -0.817520412798     1.007825032070
           H         -1.983599949508    -1.159126797287     0.914887587202     1.007825032070
           H         -2.180420949508     1.253388202713    -0.642658412798     1.007825032070
           H         -1.818477949508     1.143601202713     1.056415587202     1.007825032070

  Running in c1 symmetry.

  Rotational constants: A =      0.21494  B =      0.10259  C =      0.07637 [cm^-1]
  Rotational constants: A =   6443.81373  B =   3075.62759  C =   2289.57976 [MHz]
  Nuclear repulsion =  255.505817513370800

  Charge       = 0
  Multiplicity = 1
  Electrons    = 48
  Nalpha       = 24
  Nbeta        = 24

  ==> Algorithm <==

  SCF Algorithm Type is DF.
  DIIS enabled.
  MOM disabled.
  Fractional occupation disabled.
  Guess Type is CORE.
  Energy threshold   = 1.00e-06
  Density threshold  = 1.00e-06
  Integral threshold = 0.00e+00

  ==> Primary Basis <==

  Basis Set: 6-31G*
    Number of shells: 56
    Number of basis function: 110
    Number of Cartesian functions: 110
    Spherical Harmonics?: false
    Max angular momentum: 2

  ==> Pre-Iterations <==

   -------------------------------------------------------
    Irrep   Nso     Nmo     Nalpha   Nbeta   Ndocc  Nsocc
   -------------------------------------------------------
     A        110     110       0       0       0       0
   -------------------------------------------------------
    Total     110     110      24      24      24       0
   -------------------------------------------------------

 OEINTS: Overlap, kinetic, potential, dipole, and quadrupole integrals
         stored in file 35.

  ==> Integral Setup <==

  ==> DFJK: Density-Fitted J/K Matrices <==

    J tasked:                  Yes
    K tasked:                  Yes
    wK tasked:                  No
    OpenMP threads:              1
    Integrals threads:           1
    Memory (MB):              1430
    Algorithm:                Core
    Integral Cache:           NONE
    Schwarz Cutoff:          1E-12
    Fitting Condition:       1E-12

   => Auxiliary Basis Set <=

  Basis Set: 
    Number of shells: 234
    Number of basis function: 736
    Number of Cartesian functions: 736
    Spherical Harmonics?: false
    Max angular momentum: 3

  Minimum eigenvalue in the overlap matrix is 2.8844169869E-03.
  Using Symmetric Orthogonalization.
  SCF Guess: Core (One-Electron) Hamiltonian.

  ==> Iterations <==

                           Total Energy        Delta E     RMS |[F,P]|

   @DF-RHF iter   1:  -217.24823998627033   -2.17248e+02   7.22646e-02 
   @DF-RHF iter   2:  -186.48507508706979    3.07632e+01   6.42222e-02 DIIS
   @DF-RHF iter   3:  -215.91192513255072   -2.94269e+01   6.92986e-02 DIIS
   @DF-RHF iter   4:  -269.15948093423964   -5.32476e+01   1.11019e-02 DIIS
   @DF-RHF iter   5:  -269.93012170922572   -7.70641e-01   3.74973e-03 DIIS
   @DF-RHF iter   6:  -270.00764871224902   -7.75270e-02   6.25977e-04 DIIS
   @DF-RHF iter   7:  -270.01109006133589   -3.44135e-03   2.18752e-04 DIIS
   @DF-RHF iter   8:  -270.01148978004591   -3.99719e-04   7.89383e-05 DIIS
   @DF-RHF iter   9:  -270.01154338349585   -5.36034e-05   2.19363e-05 DIIS
   @DF-RHF iter  10:  -270.01154716113734   -3.77764e-06   7.67835e-06 DIIS
   @DF-RHF iter  11:  -270.01154764528343   -4.84146e-07   2.10528e-06 DIIS
   @DF-RHF iter  12:  -270.01154769777446   -5.24910e-08   3.93197e-07 DIIS

  ==> Post-Iterations <==

    Orbital Energies (a.u.)
    -----------------------

    Doubly Occupied:                                                      

       1A    -20.549690     2A    -11.267978     3A    -11.220877  
       4A    -11.220163     5A    -11.215792     6A    -11.206199  
       7A     -1.360405     8A     -1.114948     9A     -0.969008  
      10A     -0.948626    11A     -0.799487    12A     -0.778437  
      13A     -0.683309    14A     -0.665739    15A     -0.607269  
      16A     -0.601164    17A     -0.575577    18A     -0.530854  
      19A     -0.500272    20A     -0.484619    21A     -0.472486  
      22A     -0.459305    23A     -0.446082    24A     -0.419251  

    Virtual:                                                              

      25A      0.222770    26A      0.234867    27A      0.242100  
      28A      0.290294    29A      0.308427    30A      0.316923  
      31A      0.328161    32A      0.339287    33A      0.349482  
      34A      0.369553    35A      0.380781    36A      0.408822  
      37A      0.428036    38A      0.476621    39A      0.497033  
      40A      0.504658    41A      0.725663    42A      0.741749  
      43A      0.769387    44A      0.797508    45A      0.818191  
      46A      0.829363    47A      0.905231    48A      0.922320  
      49A      0.936590    50A      0.940823    51A      0.962905  
      52A      0.977839    53A      1.026759    54A      1.051433  
      55A      1.114946    56A      1.136166    57A      1.147572  
      58A      1.150847    59A      1.158696    60A      1.172042  
      61A      1.185869    62A      1.213584    63A      1.223413  
      64A      1.232579    65A      1.256392    66A      1.298470  
      67A      1.333426    68A      1.419331    69A      1.503174  
      70A      1.543658    71A      1.564263    72A      1.622172  
      73A      1.718743    74A      1.874217    75A      1.935085  
      76A      2.006914    77A      2.064206    78A      2.070897  
      79A      2.092889    80A      2.115688    81A      2.147593  
      82A      2.207109    83A      2.255939    84A      2.273656  
      85A      2.309725    86A      2.340096    87A      2.360468  
      88A      2.429111    89A      2.461407    90A      2.474826  
      91A      2.517261    92A      2.574014    93A      2.695892  
      94A      2.724558    95A      2.749123    96A      2.818902  
      97A      2.858477    98A      2.899806    99A      2.952786  
     100A      2.995096   101A      3.011716   102A      3.058506  
     103A      3.242449   104A      3.284207   105A      4.278284  
     106A      4.610563   107A      4.714931   108A      4.731067  
     109A      5.021628   110A      5.057850  

    Final Occupation by Irrep:
              A 
    DOCC [    24 ]

  Energy converged.

  @DF-RHF Final Energy:  -270.01154769777446

   => Energetics <=

    Nuclear Repulsion Energy =            255.5058175133708005
    One-Electron Energy =                -872.8397558171000128
    Two-Electron Energy =                 347.3223906059552633
    DFT Exchange-Correlation Energy =       0.0000000000000000
    Empirical Dispersion Energy =           0.0000000000000000
    PCM Polarization Energy =               0.0000000000000000
    EFP Energy =                            0.0000000000000000
    Total Energy =                       -270.0115476977738922

    Alert: EFP and PCM quantities not currently incorporated into SCF psivars.

Properties will be evaluated at   0.000000,   0.000000,   0.000000 Bohr
  ==> Properties <==


Properties computed using the SCF density matrix

  Nuclear Dipole Moment: (a.u.)
     X:    -4.0365      Y:     0.7506      Z:    -0.2665

  Electronic Dipole Moment: (a.u.)
     X:     3.5658      Y:    -0.1901      Z:     0.1291

  Dipole Moment: (a.u.)
     X:    -0.4707      Y:     0.5606      Z:    -0.1375     Total:     0.7448

  Dipole Moment: (Debye)
     X:    -1.1963      Y:     1.4248      Z:    -0.3494     Total:     1.8930


  Saving occupied orbitals to File 180.

*** tstop() called on cx1-3-2-2.cx1.hpc.ic.ac.uk at Tue Jul  5 16:27:09 2016
Module time:
	user time   =       6.67 seconds =       0.11 minutes
	system time =       0.04 seconds =       0.00 minutes
	total time  =          7 seconds =       0.12 minutes
Total time:
	user time   =       6.67 seconds =       0.11 minutes
	system time =       0.04 seconds =       0.00 minutes
	total time  =          7 seconds =       0.12 minutes


Properties will be evaluated at   0.000000,   0.000000,   0.000000 Bohr

Properties computed using the  density matrix

  Nuclear Dipole Moment: (a.u.)
     X:    -4.0365      Y:     0.7506      Z:    -0.2665

  Electronic Dipole Moment: (a.u.)
     X:     3.5658      Y:    -0.1901      Z:     0.1291

  Dipole Moment: (a.u.)
     X:    -0.4707      Y:     0.5606      Z:    -0.1375     Total:     0.7448

  Dipole Moment: (Debye)
     X:    -1.1963      Y:     1.4248      Z:    -0.3494     Total:     1.8930

  Quadrupole Moment: (Debye Ang)
    XX:   -41.7753     YY:   -37.4713     ZZ:   -37.0143
    XY:     3.5971     XZ:    -1.3944     YZ:    -0.9819

  Traceless Quadrupole Moment: (Debye Ang)
    XX:    -3.0217     YY:     1.2823     ZZ:     1.7394
    XY:     3.5971     XZ:    -1.3944     YZ:    -0.9819

  Mulliken Charges: (a.u.)
   Center  Symbol    Alpha    Beta     Spin     Total
       1     H     0.27923  0.27923  0.00000  0.44154
       2     O     4.38188  4.38188  0.00000 -0.76377
       3     C     2.89860  2.89860  0.00000  0.20281
       4     H     0.42498  0.42498  0.00000  0.15005
       5     C     3.16454  3.16454  0.00000 -0.32907
       6     C     3.18860  3.18860  0.00000 -0.37720
       7     H     0.41574  0.41574  0.00000  0.16851
       8     H     0.41241  0.41241  0.00000  0.17518
       9     C     3.17030  3.17030  0.00000 -0.34059
      10     H     0.42129  0.42129  0.00000  0.15741
      11     H     0.41428  0.41428  0.00000  0.17143
      12     C     3.16724  3.16724  0.00000 -0.33448
      13     H     0.41492  0.41492  0.00000  0.17017
      14     H     0.41639  0.41639  0.00000  0.16722
      15     H     0.41369  0.41369  0.00000  0.17263
      16     H     0.41592  0.41592  0.00000  0.16816

   Total alpha = 24.00000, Total beta = 24.00000, Total charge =  0.00000


*** PSI4 exiting successfully. Buy a developer a beer!
