    -----------------------------------------------------------------------
          Psi4: An Open-Source Ab Initio Electronic Structure Package
                              Psi4 (no tag) Driver

                          Git: Rev {detached?}  

    J. M. Turney, A. C. Simmonett, R. M. Parrish, E. G. Hohenstein,
    F. A. Evangelista, J. T. Fermann, B. J. Mintz, L. A. Burns, J. J. Wilke,
    M. L. Abrams, N. J. Russ, M. L. Leininger, C. L. Janssen, E. T. Seidl,
    W. D. Allen, H. F. Schaefer, R. A. King, E. F. Valeev, C. D. Sherrill,
    and T. D. Crawford, WIREs Comput. Mol. Sci. 2, 556-565 (2012)
    (doi: 10.1002/wcms.93)

                         Additional Contributions by
    A. E. DePrince, M. Saitow, U. Bozkaya, A. Yu. Sokolov
    -----------------------------------------------------------------------


    Psi4 started on: Tue Jul  5 16:21:53 2016

    Process ID:  19356
    PSI4DATADIR: /export131/home/mjharvey/miniconda3/share
    Memory level set to 256.000 MB

  ==> Input File <==

--------------------------------------------------------------------------
set {
	reference rhf
	basis 6-31G*
}


set_num_threads( 1 )
memory 2 gb

molecule MOL {
0 1

H	 -1.033919	 -1.177482	 0.389366
N	 -1.172117	 -0.314371	 -0.100254
C	 -0.024542	 0.565565	 0.069209
H	 -1.296331	 -0.546369	 -1.067634
C	 1.271298	 -0.229563	 -0.014192
H	 -0.049409	 1.297310	 -0.731596
H	 -0.046881	 1.125219	 1.006750
H	 1.332152	 -0.753033	 -0.961461
H	 2.134169	 0.422483	 0.080702
H	 1.326077	 -0.968298	 0.781395

	symmetry c1
}
ee = energy('scf')
oeprop('DIPOLE', 'QUADRUPOLE', 'MULLIKEN_CHARGES')
f=open( 'psi4out.xyz', 'w' )
f.write( "10  " )
f.write( str(ee) + "\n" )
f.write( MOL.save_string_xyz() )
f.close()
--------------------------------------------------------------------------

  Memory set to   2.000 GiB by Python script.

*** tstart() called on cx1-3-15-2.cx1.hpc.ic.ac.uk
*** at Tue Jul  5 16:21:54 2016


         ---------------------------------------------------------
                                   SCF
            by Justin Turney, Rob Parrish, and Andy Simmonett
                              RHF Reference
                        1 Threads,   2000 MiB Core
         ---------------------------------------------------------

  ==> Geometry <==

    Molecular point group: c1
    Full point group: C1

    Geometry (in Angstrom), charge = 0, multiplicity = 1:

       Center              X                  Y                   Z               Mass       
    ------------   -----------------  -----------------  -----------------  -----------------
           H         -1.054607999529    -1.155843090373     0.417109669730     1.007825032070
           N         -1.192805999529    -0.292732090373    -0.072510330270    14.003074004780
           C         -0.045230999529     0.587203909627     0.096952669730    12.000000000000
           H         -1.317019999529    -0.524730090373    -1.039890330270     1.007825032070
           C          1.250609000471    -0.207924090373     0.013551669730    12.000000000000
           H         -0.070097999529     1.318948909627    -0.703852330270     1.007825032070
           H         -0.067569999529     1.146857909627     1.034493669730     1.007825032070
           H          1.311463000471    -0.731394090373    -0.933717330270     1.007825032070
           H          2.113480000471     0.444121909627     0.108445669730     1.007825032070
           H          1.305388000471    -0.946659090373     0.809138669730     1.007825032070

  Running in c1 symmetry.

  Rotational constants: A =      1.01832  B =      0.31177  C =      0.27175 [cm^-1]
  Rotational constants: A =  30528.42547  B =   9346.52075  C =   8146.89522 [MHz]
  Nuclear repulsion =   83.699546553265449

  Charge       = 0
  Multiplicity = 1
  Electrons    = 26
  Nalpha       = 13
  Nbeta        = 13

  ==> Algorithm <==

  SCF Algorithm Type is DF.
  DIIS enabled.
  MOM disabled.
  Fractional occupation disabled.
  Guess Type is CORE.
  Energy threshold   = 1.00e-06
  Density threshold  = 1.00e-06
  Integral threshold = 0.00e+00

  ==> Primary Basis <==

  Basis Set: 6-31G*
    Number of shells: 32
    Number of basis function: 59
    Number of Cartesian functions: 59
    Spherical Harmonics?: false
    Max angular momentum: 2

  ==> Pre-Iterations <==

   -------------------------------------------------------
    Irrep   Nso     Nmo     Nalpha   Nbeta   Ndocc  Nsocc
   -------------------------------------------------------
     A         59      59       0       0       0       0
   -------------------------------------------------------
    Total      59      59      13      13      13       0
   -------------------------------------------------------

 OEINTS: Overlap, kinetic, potential, dipole, and quadrupole integrals
         stored in file 35.

  ==> Integral Setup <==

  ==> DFJK: Density-Fitted J/K Matrices <==

    J tasked:                  Yes
    K tasked:                  Yes
    wK tasked:                  No
    OpenMP threads:              1
    Integrals threads:           1
    Memory (MB):              1430
    Algorithm:                Core
    Integral Cache:           NONE
    Schwarz Cutoff:          1E-12
    Fitting Condition:       1E-12

   => Auxiliary Basis Set <=

  Basis Set: 
    Number of shells: 135
    Number of basis function: 418
    Number of Cartesian functions: 418
    Spherical Harmonics?: false
    Max angular momentum: 3

  Minimum eigenvalue in the overlap matrix is 5.8836823033E-03.
  Using Symmetric Orthogonalization.
  SCF Guess: Core (One-Electron) Hamiltonian.

  ==> Iterations <==

                           Total Energy        Delta E     RMS |[F,P]|

   @DF-RHF iter   1:  -108.77025667367157   -1.08770e+02   9.47611e-02 
   @DF-RHF iter   2:  -109.11745724323121   -3.47201e-01   6.43816e-02 DIIS
   @DF-RHF iter   3:  -117.67860237796837   -8.56115e+00   6.78558e-02 DIIS
   @DF-RHF iter   4:  -133.64554341040525   -1.59669e+01   1.75702e-02 DIIS
   @DF-RHF iter   5:  -134.15394724102157   -5.08404e-01   6.80447e-03 DIIS
   @DF-RHF iter   6:  -134.23198222492641   -7.80350e-02   2.13281e-03 DIIS
   @DF-RHF iter   7:  -134.24382782122728   -1.18456e-02   4.59347e-04 DIIS
   @DF-RHF iter   8:  -134.24453440755616   -7.06586e-04   9.07939e-05 DIIS
   @DF-RHF iter   9:  -134.24456888430359   -3.44767e-05   2.34372e-05 DIIS
   @DF-RHF iter  10:  -134.24457095388919   -2.06959e-06   5.35317e-06 DIIS
   @DF-RHF iter  11:  -134.24457102945684   -7.55676e-08   1.16524e-06 DIIS
   @DF-RHF iter  12:  -134.24457103327256   -3.81573e-09   3.61788e-07 DIIS

  ==> Post-Iterations <==

    Orbital Energies (a.u.)
    -----------------------

    Doubly Occupied:                                                      

       1A    -15.531793     2A    -11.244007     3A    -11.209957  
       4A     -1.178428     5A     -0.987396     6A     -0.832036  
       7A     -0.673800     8A     -0.604213     9A     -0.578303  
      10A     -0.551433    11A     -0.511781    12A     -0.486342  
      13A     -0.377283  

    Virtual:                                                              

      14A      0.222652    15A      0.279070    16A      0.284147  
      17A      0.304467    18A      0.323778    19A      0.342182  
      20A      0.354151    21A      0.417241    22A      0.448129  
      23A      0.731826    24A      0.754021    25A      0.792935  
      26A      0.802796    27A      0.858511    28A      0.931820  
      29A      1.008000    30A      1.061685    31A      1.104712  
      32A      1.154166    33A      1.176653    34A      1.198915  
      35A      1.228204    36A      1.236825    37A      1.246633  
      38A      1.248941    39A      1.276192    40A      1.656960  
      41A      1.700624    42A      1.760261    43A      1.779849  
      44A      2.062850    45A      2.210912    46A      2.260088  
      47A      2.355896    48A      2.364045    49A      2.434872  
      50A      2.547352    51A      2.645540    52A      2.697432  
      53A      2.795282    54A      2.841736    55A      2.963107  
      56A      3.077999    57A      4.215525    58A      4.625415  
      59A      4.840605  

    Final Occupation by Irrep:
              A 
    DOCC [    13 ]

  Energy converged.

  @DF-RHF Final Energy:  -134.24457103327256

   => Energetics <=

    Nuclear Repulsion Energy =             83.6995465532654492
    One-Electron Energy =                -346.3546624988408666
    Two-Electron Energy =                 128.4105449123028961
    DFT Exchange-Correlation Energy =       0.0000000000000000
    Empirical Dispersion Energy =           0.0000000000000000
    PCM Polarization Energy =               0.0000000000000000
    EFP Energy =                            0.0000000000000000
    Total Energy =                       -134.2445710332725071

    Alert: EFP and PCM quantities not currently incorporated into SCF psivars.

Properties will be evaluated at   0.000000,   0.000000,   0.000000 Bohr
  ==> Properties <==


Properties computed using the SCF density matrix

  Nuclear Dipole Moment: (a.u.)
     X:     2.0856      Y:    -0.4198      Z:    -0.2888

  Electronic Dipole Moment: (a.u.)
     X:    -1.6067      Y:     0.1461      Z:     0.0547

  Dipole Moment: (a.u.)
     X:     0.4789      Y:    -0.2737      Z:    -0.2341     Total:     0.5993

  Dipole Moment: (Debye)
     X:     1.2174      Y:    -0.6957      Z:    -0.5951     Total:     1.5232


  Saving occupied orbitals to File 180.

*** tstop() called on cx1-3-15-2.cx1.hpc.ic.ac.uk at Tue Jul  5 16:21:56 2016
Module time:
	user time   =       1.65 seconds =       0.03 minutes
	system time =       0.02 seconds =       0.00 minutes
	total time  =          2 seconds =       0.03 minutes
Total time:
	user time   =       1.65 seconds =       0.03 minutes
	system time =       0.02 seconds =       0.00 minutes
	total time  =          2 seconds =       0.03 minutes


Properties will be evaluated at   0.000000,   0.000000,   0.000000 Bohr

Properties computed using the  density matrix

  Nuclear Dipole Moment: (a.u.)
     X:     2.0856      Y:    -0.4198      Z:    -0.2888

  Electronic Dipole Moment: (a.u.)
     X:    -1.6067      Y:     0.1461      Z:     0.0547

  Dipole Moment: (a.u.)
     X:     0.4789      Y:    -0.2737      Z:    -0.2341     Total:     0.5993

  Dipole Moment: (Debye)
     X:     1.2174      Y:    -0.6957      Z:    -0.5951     Total:     1.5232

  Quadrupole Moment: (Debye Ang)
    XX:   -25.0138     YY:   -19.2782     ZZ:   -19.2248
    XY:     1.5381     XZ:     1.3446     YZ:    -0.0994

  Traceless Quadrupole Moment: (Debye Ang)
    XX:    -3.8416     YY:     1.8941     ZZ:     1.9475
    XY:     1.5381     XZ:     1.3446     YZ:    -0.0994

  Mulliken Charges: (a.u.)
   Center  Symbol    Alpha    Beta     Spin     Total
       1     H     0.33493  0.33493  0.00000  0.33014
       2     N     3.91719  3.91719  0.00000 -0.83438
       3     C     3.06251  3.06251  0.00000 -0.12502
       4     H     0.33376  0.33376  0.00000  0.33248
       5     C     3.24436  3.24436  0.00000 -0.48873
       6     H     0.41971  0.41971  0.00000  0.16058
       7     H     0.41775  0.41775  0.00000  0.16451
       8     H     0.42385  0.42385  0.00000  0.15229
       9     H     0.42221  0.42221  0.00000  0.15558
      10     H     0.42372  0.42372  0.00000  0.15255

   Total alpha = 13.00000, Total beta = 13.00000, Total charge =  0.00000


*** PSI4 exiting successfully. Buy a developer a beer!
