    -----------------------------------------------------------------------
          Psi4: An Open-Source Ab Initio Electronic Structure Package
                              Psi4 (no tag) Driver

                          Git: Rev {detached?}  

    J. M. Turney, A. C. Simmonett, R. M. Parrish, E. G. Hohenstein,
    F. A. Evangelista, J. T. Fermann, B. J. Mintz, L. A. Burns, J. J. Wilke,
    M. L. Abrams, N. J. Russ, M. L. Leininger, C. L. Janssen, E. T. Seidl,
    W. D. Allen, H. F. Schaefer, R. A. King, E. F. Valeev, C. D. Sherrill,
    and T. D. Crawford, WIREs Comput. Mol. Sci. 2, 556-565 (2012)
    (doi: 10.1002/wcms.93)

                         Additional Contributions by
    A. E. DePrince, M. Saitow, U. Bozkaya, A. Yu. Sokolov
    -----------------------------------------------------------------------


    Psi4 started on: Tue Jul  5 16:34:02 2016

    Process ID:   5745
    PSI4DATADIR: /export131/home/mjharvey/miniconda3/share
    Memory level set to 256.000 MB

  ==> Input File <==

--------------------------------------------------------------------------
set {
	reference rhf
	basis 6-31G*
}


set_num_threads( 1 )
memory 2 gb

molecule MOL {
0 1

O	 -1.276010	 1.052711	 -0.768302
C	 -1.204840	 0.067374	 -0.106123
C	 -2.388195	 -0.672128	 0.458071
O	 -0.067104	 -0.527208	 0.221609
H	 -2.388023	 -1.694060	 0.097175
H	 -3.300579	 -0.174919	 0.164318
H	 -2.315377	 -0.706351	 1.539059
C	 1.170111	 0.034140	 -0.238951
C	 1.920573	 -1.103580	 -0.908269
C	 1.927428	 0.639255	 0.932779
H	 0.937160	 0.803755	 -0.960016
H	 1.340527	 -1.516195	 -1.725914
H	 2.865399	 -0.746160	 -1.304361
H	 2.124593	 -1.898236	 -0.198655
H	 2.875388	 1.045464	 0.594576
H	 1.358247	 1.441689	 1.384563
H	 2.128396	 -0.116603	 1.685307

	symmetry c1
}
set optking {
	frozen_dihedral = ("
		8 4 2 1
	")
}

ee = energy('scf')
oeprop('DIPOLE', 'QUADRUPOLE', 'MULLIKEN_CHARGES')
f=open( 'psi4out.xyz', 'w' )
f.write( "17  " )
f.write( str(ee) + "\n" )
f.write( MOL.save_string_xyz() )
f.close()
--------------------------------------------------------------------------

  Memory set to   2.000 GiB by Python script.

*** tstart() called on cx1-1-3-4.cx1.hpc.ic.ac.uk
*** at Tue Jul  5 16:34:02 2016


         ---------------------------------------------------------
                                   SCF
            by Justin Turney, Rob Parrish, and Andy Simmonett
                              RHF Reference
                        1 Threads,   2000 MiB Core
         ---------------------------------------------------------

  ==> Geometry <==

    Molecular point group: c1
    Full point group: C1

    Geometry (in Angstrom), charge = 0, multiplicity = 1:

       Center              X                  Y                   Z               Mass       
    ------------   -----------------  -----------------  -----------------  -----------------
           O         -1.288625920440     1.127204202722    -0.711396974106    15.994914619560
           C         -1.217455920440     0.141867202722    -0.049217974106    12.000000000000
           C         -2.400810920440    -0.597634797278     0.514976025894    12.000000000000
           O         -0.079719920440    -0.452714797278     0.278514025894    15.994914619560
           H         -2.400638920440    -1.619566797278     0.154080025894     1.007825032070
           H         -3.313194920440    -0.100425797278     0.221223025894     1.007825032070
           H         -2.327992920440    -0.631857797278     1.595964025894     1.007825032070
           C          1.157495079560     0.108633202722    -0.182045974106    12.000000000000
           C          1.907957079560    -1.029086797278    -0.851363974106    12.000000000000
           C          1.914812079560     0.713748202722     0.989684025894    12.000000000000
           H          0.924544079560     0.878248202722    -0.903110974106     1.007825032070
           H          1.327911079560    -1.441701797278    -1.669008974106     1.007825032070
           H          2.852783079560    -0.671666797278    -1.247455974106     1.007825032070
           H          2.111977079560    -1.823742797278    -0.141749974106     1.007825032070
           H          2.862772079560     1.119957202722     0.651481025894     1.007825032070
           H          1.345631079560     1.516182202722     1.441468025894     1.007825032070
           H          2.115780079560    -0.042109797278     1.742212025894     1.007825032070

  Running in c1 symmetry.

  Rotational constants: A =      0.15786  B =      0.05341  C =      0.05087 [cm^-1]
  Rotational constants: A =   4732.51975  B =   1601.28859  C =   1525.10759 [MHz]
  Nuclear repulsion =  322.044427933439067

  Charge       = 0
  Multiplicity = 1
  Electrons    = 56
  Nalpha       = 28
  Nbeta        = 28

  ==> Algorithm <==

  SCF Algorithm Type is DF.
  DIIS enabled.
  MOM disabled.
  Fractional occupation disabled.
  Guess Type is CORE.
  Energy threshold   = 1.00e-06
  Density threshold  = 1.00e-06
  Integral threshold = 0.00e+00

  ==> Primary Basis <==

  Basis Set: 6-31G*
    Number of shells: 62
    Number of basis function: 125
    Number of Cartesian functions: 125
    Spherical Harmonics?: false
    Max angular momentum: 2

  ==> Pre-Iterations <==

   -------------------------------------------------------
    Irrep   Nso     Nmo     Nalpha   Nbeta   Ndocc  Nsocc
   -------------------------------------------------------
     A        125     125       0       0       0       0
   -------------------------------------------------------
    Total     125     125      28      28      28       0
   -------------------------------------------------------

 OEINTS: Overlap, kinetic, potential, dipole, and quadrupole integrals
         stored in file 35.

  ==> Integral Setup <==

  ==> DFJK: Density-Fitted J/K Matrices <==

    J tasked:                  Yes
    K tasked:                  Yes
    wK tasked:                  No
    OpenMP threads:              1
    Integrals threads:           1
    Memory (MB):              1430
    Algorithm:                Core
    Integral Cache:           NONE
    Schwarz Cutoff:          1E-12
    Fitting Condition:       1E-12

   => Auxiliary Basis Set <=

  Basis Set: 
    Number of shells: 258
    Number of basis function: 817
    Number of Cartesian functions: 817
    Spherical Harmonics?: false
    Max angular momentum: 3

  Minimum eigenvalue in the overlap matrix is 3.7981354991E-03.
  Using Symmetric Orthogonalization.
  SCF Guess: Core (One-Electron) Hamiltonian.

  ==> Iterations <==

                           Total Energy        Delta E     RMS |[F,P]|

   @DF-RHF iter   1:  -245.08338094703828   -2.45083e+02   8.22217e-02 
   @DF-RHF iter   2:  -259.94011577627208   -1.48567e+01   5.27452e-02 DIIS
   @DF-RHF iter   3:  -274.34304956594366   -1.44029e+01   6.72514e-02 DIIS
   @DF-RHF iter   4:  -329.78595957862245   -5.54429e+01   3.92565e-02 DIIS
   @DF-RHF iter   5:  -336.45678379153827   -6.67082e+00   2.55687e-02 DIIS
   @DF-RHF iter   6:  -343.73252721586442   -7.27574e+00   1.18033e-02 DIIS
   @DF-RHF iter   7:  -344.82035604808465   -1.08783e+00   3.41896e-03 DIIS
   @DF-RHF iter   8:  -344.88771878375809   -6.73627e-02   1.98570e-03 DIIS
   @DF-RHF iter   9:  -344.91203260137939   -2.43138e-02   3.07388e-04 DIIS
   @DF-RHF iter  10:  -344.91326414368308   -1.23154e-03   9.16327e-05 DIIS
   @DF-RHF iter  11:  -344.91337432407221   -1.10180e-04   3.30407e-05 DIIS
   @DF-RHF iter  12:  -344.91339014782415   -1.58238e-05   1.13821e-05 DIIS
   @DF-RHF iter  13:  -344.91339235149115   -2.20367e-06   4.54768e-06 DIIS
   @DF-RHF iter  14:  -344.91339269506949   -3.43578e-07   1.74768e-06 DIIS
   @DF-RHF iter  15:  -344.91339274984654   -5.47770e-08   4.20987e-07 DIIS

  ==> Post-Iterations <==

    Orbital Energies (a.u.)
    -----------------------

    Doubly Occupied:                                                      

       1A    -20.598887     2A    -20.542415     3A    -11.375181  
       4A    -11.287544     5A    -11.232570     6A    -11.219231  
       7A    -11.218145     8A     -1.465412     9A     -1.361383  
      10A     -1.078638    11A     -1.005403    12A     -0.948397  
      13A     -0.847293    14A     -0.768408    15A     -0.692708  
      16A     -0.663940    17A     -0.661586    18A     -0.612864  
      19A     -0.586660    20A     -0.578865    21A     -0.566840  
      22A     -0.551010    23A     -0.534048    24A     -0.523252  
      25A     -0.502277    26A     -0.481727    27A     -0.443990  
      28A     -0.436685  

    Virtual:                                                              

      29A      0.200320    30A      0.232452    31A      0.259161  
      32A      0.283722    33A      0.294804    34A      0.296361  
      35A      0.310735    36A      0.328429    37A      0.333550  
      38A      0.345968    39A      0.356078    40A      0.373415  
      41A      0.385157    42A      0.427145    43A      0.434565  
      44A      0.500893    45A      0.544772    46A      0.687851  
      47A      0.695096    48A      0.739975    49A      0.769418  
      50A      0.786278    51A      0.787972    52A      0.811975  
      53A      0.827482    54A      0.872966    55A      0.887768  
      56A      0.925935    57A      0.968630    58A      0.979335  
      59A      0.995914    60A      1.021051    61A      1.073775  
      62A      1.092726    63A      1.136346    64A      1.143214  
      65A      1.164225    66A      1.166359    67A      1.184366  
      68A      1.198785    69A      1.205839    70A      1.215383  
      71A      1.230320    72A      1.243768    73A      1.255906  
      74A      1.298473    75A      1.345673    76A      1.407563  
      77A      1.422070    78A      1.456332    79A      1.569387  
      80A      1.638815    81A      1.714528    82A      1.745722  
      83A      1.804674    84A      1.842418    85A      1.851117  
      86A      1.960266    87A      1.989435    88A      2.042518  
      89A      2.055840    90A      2.080260    91A      2.086472  
      92A      2.124301    93A      2.183069    94A      2.241997  
      95A      2.261531    96A      2.304177    97A      2.335173  
      98A      2.361137    99A      2.414927   100A      2.484442  
     101A      2.504842   102A      2.519151   103A      2.554596  
     104A      2.580671   105A      2.591327   106A      2.599901  
     107A      2.724915   108A      2.788009   109A      2.812217  
     110A      2.837773   111A      2.873175   112A      3.029642  
     113A      3.040768   114A      3.110705   115A      3.184015  
     116A      3.354846   117A      3.424327   118A      3.562229  
     119A      4.426200   120A      4.528692   121A      4.573152  
     122A      4.678569   123A      4.722640   124A      4.863630  
     125A      4.992955  

    Final Occupation by Irrep:
              A 
    DOCC [    28 ]

  Energy converged.

  @DF-RHF Final Energy:  -344.91339274984654

   => Energetics <=

    Nuclear Repulsion Energy =            322.0444279334390671
    One-Electron Energy =               -1108.3449499511789327
    Two-Electron Energy =                 441.3871292678935561
    DFT Exchange-Correlation Energy =       0.0000000000000000
    Empirical Dispersion Energy =           0.0000000000000000
    PCM Polarization Energy =               0.0000000000000000
    EFP Energy =                            0.0000000000000000
    Total Energy =                       -344.9133927498463663

    Alert: EFP and PCM quantities not currently incorporated into SCF psivars.

Properties will be evaluated at   0.000000,   0.000000,   0.000000 Bohr
  ==> Properties <==


Properties computed using the SCF density matrix

  Nuclear Dipole Moment: (a.u.)
     X:     5.1491      Y:    -2.6373      Z:     1.7276

  Electronic Dipole Moment: (a.u.)
     X:    -4.7968      Y:     2.0250      Z:    -1.3281

  Dipole Moment: (a.u.)
     X:     0.3523      Y:    -0.6123      Z:     0.3995     Total:     0.8115

  Dipole Moment: (Debye)
     X:     0.8954      Y:    -1.5563      Z:     1.0155     Total:     2.0627


  Saving occupied orbitals to File 180.

*** tstop() called on cx1-1-3-4.cx1.hpc.ic.ac.uk at Tue Jul  5 16:34:16 2016
Module time:
	user time   =      12.75 seconds =       0.21 minutes
	system time =       0.23 seconds =       0.00 minutes
	total time  =         14 seconds =       0.23 minutes
Total time:
	user time   =      12.75 seconds =       0.21 minutes
	system time =       0.23 seconds =       0.00 minutes
	total time  =         14 seconds =       0.23 minutes


Properties will be evaluated at   0.000000,   0.000000,   0.000000 Bohr

Properties computed using the  density matrix

  Nuclear Dipole Moment: (a.u.)
     X:     5.1491      Y:    -2.6373      Z:     1.7276

  Electronic Dipole Moment: (a.u.)
     X:    -4.7968      Y:     2.0250      Z:    -1.3281

  Dipole Moment: (a.u.)
     X:     0.3523      Y:    -0.6123      Z:     0.3995     Total:     0.8115

  Dipole Moment: (Debye)
     X:     0.8954      Y:    -1.5563      Z:     1.0155     Total:     2.0627

  Quadrupole Moment: (Debye Ang)
    XX:   -39.3013     YY:   -46.1502     ZZ:   -43.7243
    XY:     4.1208     XZ:    -2.9144     YZ:     2.4450

  Traceless Quadrupole Moment: (Debye Ang)
    XX:     3.7573     YY:    -3.0916     ZZ:    -0.6657
    XY:     4.1208     XZ:    -2.9144     YZ:     2.4450

  Mulliken Charges: (a.u.)
   Center  Symbol    Alpha    Beta     Spin     Total
       1     O     4.28484  4.28484  0.00000 -0.56968
       2     C     2.61810  2.61810  0.00000  0.76380
       3     C     3.28260  3.28260  0.00000 -0.56521
       4     O     4.31286  4.31286  0.00000 -0.62572
       5     H     0.40071  0.40071  0.00000  0.19859
       6     H     0.39719  0.39719  0.00000  0.20562
       7     H     0.40077  0.40077  0.00000  0.19847
       8     C     2.93738  2.93738  0.00000  0.12524
       9     C     3.24013  3.24013  0.00000 -0.48027
      10     C     3.24373  3.24373  0.00000 -0.48747
      11     H     0.39153  0.39153  0.00000  0.21694
      12     H     0.41287  0.41287  0.00000  0.17427
      13     H     0.41884  0.41884  0.00000  0.16232
      14     H     0.41502  0.41502  0.00000  0.16997
      15     H     0.41739  0.41739  0.00000  0.16522
      16     H     0.41069  0.41069  0.00000  0.17862
      17     H     0.41536  0.41536  0.00000  0.16929

   Total alpha = 28.00000, Total beta = 28.00000, Total charge =  0.00000


*** PSI4 exiting successfully. Buy a developer a beer!
