    -----------------------------------------------------------------------
          Psi4: An Open-Source Ab Initio Electronic Structure Package
                              Psi4 (no tag) Driver

                          Git: Rev {detached?}  

    J. M. Turney, A. C. Simmonett, R. M. Parrish, E. G. Hohenstein,
    F. A. Evangelista, J. T. Fermann, B. J. Mintz, L. A. Burns, J. J. Wilke,
    M. L. Abrams, N. J. Russ, M. L. Leininger, C. L. Janssen, E. T. Seidl,
    W. D. Allen, H. F. Schaefer, R. A. King, E. F. Valeev, C. D. Sherrill,
    and T. D. Crawford, WIREs Comput. Mol. Sci. 2, 556-565 (2012)
    (doi: 10.1002/wcms.93)

                         Additional Contributions by
    A. E. DePrince, M. Saitow, U. Bozkaya, A. Yu. Sokolov
    -----------------------------------------------------------------------


    Psi4 started on: Tue Jul  5 16:31:19 2016

    Process ID:  15292
    PSI4DATADIR: /export131/home/mjharvey/miniconda3/share
    Memory level set to 256.000 MB

  ==> Input File <==

--------------------------------------------------------------------------
set {
	reference rhf
	basis 6-31G*
}


set_num_threads( 1 )
memory 2 gb

molecule MOL {
0 1

O	 0.690035	 -1.107774	 -2.176341
C	 0.074222	 -1.151290	 -1.161326
C	 -1.322786	 -1.689997	 -1.017344
O	 0.550821	 -0.724572	 0.000672
H	 -1.328101	 -2.508380	 -0.306777
H	 -1.680019	 -2.030792	 -1.977623
H	 -1.975421	 -0.915633	 -0.631328
C	 1.863949	 -0.193559	 -0.000319
H	 2.028859	 0.409284	 -0.881648
H	 2.526261	 -1.045082	 -0.000003
H	 2.029520	 0.410555	 0.880008

	symmetry c1
}
set optking {
	frozen_dihedral = ("
		8 4 2 1
	")
}

ee = energy('scf')
oeprop('DIPOLE', 'QUADRUPOLE', 'MULLIKEN_CHARGES')
f=open( 'psi4out.xyz', 'w' )
f.write( "11  " )
f.write( str(ee) + "\n" )
f.write( MOL.save_string_xyz() )
f.close()
--------------------------------------------------------------------------

  Memory set to   2.000 GiB by Python script.

*** tstart() called on cx1-1-4-3.cx1.hpc.ic.ac.uk
*** at Tue Jul  5 16:31:20 2016


         ---------------------------------------------------------
                                   SCF
            by Justin Turney, Rob Parrish, and Andy Simmonett
                              RHF Reference
                        1 Threads,   2000 MiB Core
         ---------------------------------------------------------

  ==> Geometry <==

    Molecular point group: c1
    Full point group: C1

    Geometry (in Angstrom), charge = 0, multiplicity = 1:

       Center              X                  Y                   Z               Mass       
    ------------   -----------------  -----------------  -----------------  -----------------
           O          0.300422787696    -0.142701438364    -1.313422489665    15.994914619560
           C         -0.315390212304    -0.186217438364    -0.298407489665    12.000000000000
           C         -1.712398212304    -0.724924438364    -0.154425489665    12.000000000000
           O          0.161208787696     0.240500561636     0.863590510335    15.994914619560
           H         -1.717713212304    -1.543307438364     0.556141510335     1.007825032070
           H         -2.069631212304    -1.065719438364    -1.114704489665     1.007825032070
           H         -2.365033212304     0.049439561636     0.231590510335     1.007825032070
           C          1.474336787696     0.771513561636     0.862599510335    12.000000000000
           H          1.639246787696     1.374356561636    -0.018729489665     1.007825032070
           H          2.136648787696    -0.080009438364     0.862915510335     1.007825032070
           H          1.639907787696     1.375627561636     1.742926510335     1.007825032070

  Running in c1 symmetry.

  Rotational constants: A =      0.35142  B =      0.14031  C =      0.10415 [cm^-1]
  Rotational constants: A =  10535.33921  B =   4206.44038  C =   3122.28377 [MHz]
  Nuclear repulsion =  183.417228306903979

  Charge       = 0
  Multiplicity = 1
  Electrons    = 40
  Nalpha       = 20
  Nbeta        = 20

  ==> Algorithm <==

  SCF Algorithm Type is DF.
  DIIS enabled.
  MOM disabled.
  Fractional occupation disabled.
  Guess Type is CORE.
  Energy threshold   = 1.00e-06
  Density threshold  = 1.00e-06
  Integral threshold = 0.00e+00

  ==> Primary Basis <==

  Basis Set: 6-31G*
    Number of shells: 42
    Number of basis function: 87
    Number of Cartesian functions: 87
    Spherical Harmonics?: false
    Max angular momentum: 2

  ==> Pre-Iterations <==

   -------------------------------------------------------
    Irrep   Nso     Nmo     Nalpha   Nbeta   Ndocc  Nsocc
   -------------------------------------------------------
     A         87      87       0       0       0       0
   -------------------------------------------------------
    Total      87      87      20      20      20       0
   -------------------------------------------------------

 OEINTS: Overlap, kinetic, potential, dipole, and quadrupole integrals
         stored in file 35.

  ==> Integral Setup <==

  ==> DFJK: Density-Fitted J/K Matrices <==

    J tasked:                  Yes
    K tasked:                  Yes
    wK tasked:                  No
    OpenMP threads:              1
    Integrals threads:           1
    Memory (MB):              1430
    Algorithm:                Core
    Integral Cache:           NONE
    Schwarz Cutoff:          1E-12
    Fitting Condition:       1E-12

   => Auxiliary Basis Set <=

  Basis Set: 
    Number of shells: 174
    Number of basis function: 555
    Number of Cartesian functions: 555
    Spherical Harmonics?: false
    Max angular momentum: 3

  Minimum eigenvalue in the overlap matrix is 3.9506800306E-03.
  Using Symmetric Orthogonalization.
  SCF Guess: Core (One-Electron) Hamiltonian.

  ==> Iterations <==

                           Total Energy        Delta E     RMS |[F,P]|

   @DF-RHF iter   1:  -212.76957264309996   -2.12770e+02   8.81344e-02 
   @DF-RHF iter   2:  -209.97874761071924    2.79083e+00   6.21389e-02 DIIS
   @DF-RHF iter   3:  -240.04609381478460   -3.00673e+01   6.69085e-02 DIIS
   @DF-RHF iter   4:  -257.21313250840842   -1.71670e+01   4.49010e-02 DIIS
   @DF-RHF iter   5:  -263.14810421044501   -5.93497e+00   2.41369e-02 DIIS
   @DF-RHF iter   6:  -265.87594170337388   -2.72784e+00   1.49143e-02 DIIS
   @DF-RHF iter   7:  -266.77689953528716   -9.00958e-01   3.34294e-03 DIIS
   @DF-RHF iter   8:  -266.82632758970101   -4.94281e-02   1.48215e-03 DIIS
   @DF-RHF iter   9:  -266.83348504165065   -7.15745e-03   4.53611e-04 DIIS
   @DF-RHF iter  10:  -266.83434713840290   -8.62097e-04   1.06314e-04 DIIS
   @DF-RHF iter  11:  -266.83441770672505   -7.05683e-05   2.84741e-05 DIIS
   @DF-RHF iter  12:  -266.83442211295153   -4.40623e-06   1.05621e-05 DIIS
   @DF-RHF iter  13:  -266.83442278702262   -6.74071e-07   3.43736e-06 DIIS
   @DF-RHF iter  14:  -266.83442288677952   -9.97569e-08   1.03072e-06 DIIS
   @DF-RHF iter  15:  -266.83442289741561   -1.06361e-08   3.18613e-07 DIIS

  ==> Post-Iterations <==

    Orbital Energies (a.u.)
    -----------------------

    Doubly Occupied:                                                      

       1A    -20.605089     2A    -20.546104     3A    -11.377032  
       4A    -11.281115     5A    -11.234885     6A     -1.471174  
       7A     -1.364362     8A     -1.035899     9A     -0.952316  
      10A     -0.777252    11A     -0.696141    12A     -0.683067  
      13A     -0.677266    14A     -0.597122    15A     -0.591070  
      16A     -0.562059    17A     -0.525346    18A     -0.519205  
      19A     -0.456506    20A     -0.442681  

    Virtual:                                                              

      21A      0.197569    22A      0.249527    23A      0.266734  
      24A      0.296545    25A      0.311569    26A      0.316217  
      27A      0.339610    28A      0.349659    29A      0.412121  
      30A      0.500671    31A      0.546395    32A      0.715608  
      33A      0.734938    34A      0.752706    35A      0.771155  
      36A      0.810659    37A      0.818017    38A      0.863278  
      39A      0.928800    40A      0.986287    41A      1.044022  
      42A      1.097360    43A      1.112582    44A      1.131376  
      45A      1.139538    46A      1.181201    47A      1.197327  
      48A      1.214210    49A      1.230621    50A      1.279012  
      51A      1.364529    52A      1.377243    53A      1.388799  
      54A      1.479763    55A      1.644378    56A      1.648606  
      57A      1.743844    58A      1.810086    59A      1.821833  
      60A      1.915988    61A      1.997937    62A      2.058793  
      63A      2.100693    64A      2.147061    65A      2.205870  
      66A      2.285318    67A      2.357512    68A      2.385989  
      69A      2.446268    70A      2.495061    71A      2.529859  
      72A      2.558942    73A      2.655884    74A      2.688941  
      75A      2.723414    76A      2.822594    77A      2.952496  
      78A      3.056529    79A      3.134615    80A      3.341066  
      81A      3.400467    82A      3.544928    83A      4.404161  
      84A      4.512899    85A      4.591271    86A      4.688829  
      87A      4.885238  

    Final Occupation by Irrep:
              A 
    DOCC [    20 ]

  Energy converged.

  @DF-RHF Final Energy:  -266.83442289741561

   => Energetics <=

    Nuclear Repulsion Energy =            183.4172283069039793
    One-Electron Energy =                -727.7119542697822681
    Two-Electron Energy =                 277.4603030654615168
    DFT Exchange-Correlation Energy =       0.0000000000000000
    Empirical Dispersion Energy =           0.0000000000000000
    PCM Polarization Energy =               0.0000000000000000
    EFP Energy =                            0.0000000000000000
    Total Energy =                       -266.8344228974167436

    Alert: EFP and PCM quantities not currently incorporated into SCF psivars.

Properties will be evaluated at   0.000000,   0.000000,   0.000000 Bohr
  ==> Properties <==


Properties computed using the SCF density matrix

  Nuclear Dipole Moment: (a.u.)
     X:    -0.6883      Y:     0.1040      Z:     2.1167

  Electronic Dipole Moment: (a.u.)
     X:     0.4964      Y:    -0.0106      Z:    -1.3724

  Dipole Moment: (a.u.)
     X:    -0.1919      Y:     0.0934      Z:     0.7443     Total:     0.7743

  Dipole Moment: (Debye)
     X:    -0.4878      Y:     0.2374      Z:     1.8918     Total:     1.9680


  Saving occupied orbitals to File 180.

*** tstop() called on cx1-1-4-3.cx1.hpc.ic.ac.uk at Tue Jul  5 16:31:24 2016
Module time:
	user time   =       4.13 seconds =       0.07 minutes
	system time =       0.03 seconds =       0.00 minutes
	total time  =          4 seconds =       0.07 minutes
Total time:
	user time   =       4.13 seconds =       0.07 minutes
	system time =       0.03 seconds =       0.00 minutes
	total time  =          4 seconds =       0.07 minutes


Properties will be evaluated at   0.000000,   0.000000,   0.000000 Bohr

Properties computed using the  density matrix

  Nuclear Dipole Moment: (a.u.)
     X:    -0.6883      Y:     0.1040      Z:     2.1167

  Electronic Dipole Moment: (a.u.)
     X:     0.4964      Y:    -0.0106      Z:    -1.3724

  Dipole Moment: (a.u.)
     X:    -0.1919      Y:     0.0934      Z:     0.7443     Total:     0.7743

  Dipole Moment: (Debye)
     X:    -0.4878      Y:     0.2374      Z:     1.8918     Total:     1.9680

  Quadrupole Moment: (Debye Ang)
    XX:   -25.4764     YY:   -27.9415     ZZ:   -34.6140
    XY:     2.1990     XZ:     3.0045     YZ:     0.1128

  Traceless Quadrupole Moment: (Debye Ang)
    XX:     3.8676     YY:     1.4025     ZZ:    -5.2700
    XY:     2.1990     XZ:     3.0045     YZ:     0.1128

  Mulliken Charges: (a.u.)
   Center  Symbol    Alpha    Beta     Spin     Total
       1     O     4.28215  4.28215  0.00000 -0.56431
       2     C     2.62243  2.62243  0.00000  0.75515
       3     C     3.28176  3.28176  0.00000 -0.56351
       4     O     4.30002  4.30002  0.00000 -0.60004
       5     H     0.39980  0.39980  0.00000  0.20039
       6     H     0.39655  0.39655  0.00000  0.20689
       7     H     0.39984  0.39984  0.00000  0.20032
       8     C     3.09539  3.09539  0.00000 -0.19079
       9     H     0.40197  0.40197  0.00000  0.19606
      10     H     0.41194  0.41194  0.00000  0.17612
      11     H     0.40814  0.40814  0.00000  0.18372

   Total alpha = 20.00000, Total beta = 20.00000, Total charge =  0.00000


*** PSI4 exiting successfully. Buy a developer a beer!
