    -----------------------------------------------------------------------
          Psi4: An Open-Source Ab Initio Electronic Structure Package
                              Psi4 (no tag) Driver

                          Git: Rev {detached?}  

    J. M. Turney, A. C. Simmonett, R. M. Parrish, E. G. Hohenstein,
    F. A. Evangelista, J. T. Fermann, B. J. Mintz, L. A. Burns, J. J. Wilke,
    M. L. Abrams, N. J. Russ, M. L. Leininger, C. L. Janssen, E. T. Seidl,
    W. D. Allen, H. F. Schaefer, R. A. King, E. F. Valeev, C. D. Sherrill,
    and T. D. Crawford, WIREs Comput. Mol. Sci. 2, 556-565 (2012)
    (doi: 10.1002/wcms.93)

                         Additional Contributions by
    A. E. DePrince, M. Saitow, U. Bozkaya, A. Yu. Sokolov
    -----------------------------------------------------------------------


    Psi4 started on: Tue Jul  5 16:28:25 2016

    Process ID:  26231
    PSI4DATADIR: /export131/home/mjharvey/miniconda3/share
    Memory level set to 256.000 MB

  ==> Input File <==

--------------------------------------------------------------------------
set {
	reference rhf
	basis 6-31G*
}


set_num_threads( 1 )
memory 2 gb

molecule MOL {
0 1

H	 2.663299	 -0.043875	 0.620514
O	 2.064459	 -0.086912	 -0.111827
C	 0.745630	 0.005118	 0.354752
H	 0.739005	 0.037656	 1.444976
C	 -0.064159	 -1.194875	 -0.122754
C	 -0.046302	 1.193543	 -0.190431
H	 0.197384	 -1.376065	 -1.160690
H	 0.162855	 -2.097978	 0.431858
C	 -1.535782	 -0.752177	 0.006642
H	 0.154512	 1.271315	 -1.255561
H	 0.226209	 2.140461	 0.267302
C	 -1.509193	 0.801505	 0.065617
H	 -2.127797	 -1.112194	 -0.826847
H	 -1.986849	 -1.158408	 0.905561
H	 -2.183670	 1.254107	 -0.651985
H	 -1.821727	 1.144320	 1.047089

	symmetry c1
}
ee = energy('scf')
oeprop('DIPOLE', 'QUADRUPOLE', 'MULLIKEN_CHARGES')
f=open( 'psi4out.xyz', 'w' )
f.write( "16  " )
f.write( str(ee) + "\n" )
f.write( MOL.save_string_xyz() )
f.close()
--------------------------------------------------------------------------

  Memory set to   2.000 GiB by Python script.

*** tstart() called on cx1-3-2-2.cx1.hpc.ic.ac.uk
*** at Tue Jul  5 16:28:26 2016


         ---------------------------------------------------------
                                   SCF
            by Justin Turney, Rob Parrish, and Andy Simmonett
                              RHF Reference
                        1 Threads,   2000 MiB Core
         ---------------------------------------------------------

  ==> Geometry <==

    Molecular point group: c1
    Full point group: C1

    Geometry (in Angstrom), charge = 0, multiplicity = 1:

       Center              X                  Y                   Z               Mass       
    ------------   -----------------  -----------------  -----------------  -----------------
           H          2.662192081050    -0.035823957723     0.615798249655     1.007825032070
           O          2.063352081050    -0.078860957723    -0.116542750345    15.994914619560
           C          0.744523081050     0.013169042277     0.350036249655    12.000000000000
           H          0.737898081050     0.045707042277     1.440260249655     1.007825032070
           C         -0.065265918950    -1.186823957723    -0.127469750345    12.000000000000
           C         -0.047408918950     1.201594042277    -0.195146750345    12.000000000000
           H          0.196277081050    -1.368013957723    -1.165405750345     1.007825032070
           H          0.161748081050    -2.089926957723     0.427142249655     1.007825032070
           C         -1.536888918950    -0.744125957723     0.001926249655    12.000000000000
           H          0.153405081050     1.279366042277    -1.260276750345     1.007825032070
           H          0.225102081050     2.148512042277     0.262586249655     1.007825032070
           C         -1.510299918950     0.809556042277     0.060901249655    12.000000000000
           H         -2.128903918950    -1.104142957723    -0.831562750345     1.007825032070
           H         -1.987955918950    -1.150356957723     0.900845249655     1.007825032070
           H         -2.184776918950     1.262158042277    -0.656700750345     1.007825032070
           H         -1.822833918950     1.152371042277     1.042373249655     1.007825032070

  Running in c1 symmetry.

  Rotational constants: A =      0.21631  B =      0.10135  C =      0.07593 [cm^-1]
  Rotational constants: A =   6484.90455  B =   3038.25626  C =   2276.22136 [MHz]
  Nuclear repulsion =  255.028133277452753

  Charge       = 0
  Multiplicity = 1
  Electrons    = 48
  Nalpha       = 24
  Nbeta        = 24

  ==> Algorithm <==

  SCF Algorithm Type is DF.
  DIIS enabled.
  MOM disabled.
  Fractional occupation disabled.
  Guess Type is CORE.
  Energy threshold   = 1.00e-06
  Density threshold  = 1.00e-06
  Integral threshold = 0.00e+00

  ==> Primary Basis <==

  Basis Set: 6-31G*
    Number of shells: 56
    Number of basis function: 110
    Number of Cartesian functions: 110
    Spherical Harmonics?: false
    Max angular momentum: 2

  ==> Pre-Iterations <==

   -------------------------------------------------------
    Irrep   Nso     Nmo     Nalpha   Nbeta   Ndocc  Nsocc
   -------------------------------------------------------
     A        110     110       0       0       0       0
   -------------------------------------------------------
    Total     110     110      24      24      24       0
   -------------------------------------------------------

 OEINTS: Overlap, kinetic, potential, dipole, and quadrupole integrals
         stored in file 35.

  ==> Integral Setup <==

  ==> DFJK: Density-Fitted J/K Matrices <==

    J tasked:                  Yes
    K tasked:                  Yes
    wK tasked:                  No
    OpenMP threads:              1
    Integrals threads:           1
    Memory (MB):              1430
    Algorithm:                Core
    Integral Cache:           NONE
    Schwarz Cutoff:          1E-12
    Fitting Condition:       1E-12

   => Auxiliary Basis Set <=

  Basis Set: 
    Number of shells: 234
    Number of basis function: 736
    Number of Cartesian functions: 736
    Spherical Harmonics?: false
    Max angular momentum: 3

  Minimum eigenvalue in the overlap matrix is 2.9569995593E-03.
  Using Symmetric Orthogonalization.
  SCF Guess: Core (One-Electron) Hamiltonian.

  ==> Iterations <==

                           Total Energy        Delta E     RMS |[F,P]|

   @DF-RHF iter   1:  -217.26252368578662   -2.17263e+02   7.19837e-02 
   @DF-RHF iter   2:  -186.94018026477556    3.03223e+01   6.25687e-02 DIIS
   @DF-RHF iter   3:  -213.58239486235152   -2.66422e+01   6.84885e-02 DIIS
   @DF-RHF iter   4:  -268.98390361053862   -5.54015e+01   1.21997e-02 DIIS
   @DF-RHF iter   5:  -269.92093835734181   -9.37035e-01   3.86949e-03 DIIS
   @DF-RHF iter   6:  -270.00711126375472   -8.61729e-02   7.26095e-04 DIIS
   @DF-RHF iter   7:  -270.01172334023056   -4.61208e-03   2.28174e-04 DIIS
   @DF-RHF iter   8:  -270.01217810990147   -4.54770e-04   7.86188e-05 DIIS
   @DF-RHF iter   9:  -270.01223645534253   -5.83454e-05   2.10299e-05 DIIS
   @DF-RHF iter  10:  -270.01224036378449   -3.90844e-06   7.80306e-06 DIIS
   @DF-RHF iter  11:  -270.01224081875387   -4.54969e-07   2.30502e-06 DIIS
   @DF-RHF iter  12:  -270.01224087230958   -5.35557e-08   4.17612e-07 DIIS

  ==> Post-Iterations <==

    Orbital Energies (a.u.)
    -----------------------

    Doubly Occupied:                                                      

       1A    -20.551655     2A    -11.269385     3A    -11.214429  
       4A    -11.212799     5A    -11.208397     6A    -11.205288  
       7A     -1.361362     8A     -1.111514     9A     -0.962529  
      10A     -0.947048    11A     -0.780344    12A     -0.776350  
      13A     -0.714545    14A     -0.651011    15A     -0.620222  
      16A     -0.577889    17A     -0.547140    18A     -0.530500  
      19A     -0.519106    20A     -0.478473    21A     -0.467956  
      22A     -0.455607    23A     -0.452462    24A     -0.408190  

    Virtual:                                                              

      25A      0.213957    26A      0.232170    27A      0.259249  
      28A      0.294641    29A      0.308358    30A      0.327454  
      31A      0.334028    32A      0.345257    33A      0.350120  
      34A      0.361203    35A      0.380725    36A      0.412248  
      37A      0.426720    38A      0.496018    39A      0.498475  
      40A      0.505688    41A      0.723371    42A      0.744702  
      43A      0.768077    44A      0.804116    45A      0.815351  
      46A      0.829240    47A      0.913618    48A      0.926236  
      49A      0.936921    50A      0.940266    51A      0.971855  
      52A      0.979142    53A      1.018622    54A      1.054302  
      55A      1.106348    56A      1.142700    57A      1.149313  
      58A      1.154356    59A      1.162490    60A      1.167833  
      61A      1.204275    62A      1.216656    63A      1.223908  
      64A      1.230261    65A      1.260106    66A      1.304696  
      67A      1.315009    68A      1.471205    69A      1.484305  
      70A      1.544461    71A      1.573753    72A      1.605243  
      73A      1.765787    74A      1.878072    75A      1.933899  
      76A      1.991863    77A      2.015716    78A      2.077574  
      79A      2.096163    80A      2.106262    81A      2.140231  
      82A      2.251554    83A      2.266895    84A      2.278005  
      85A      2.312066    86A      2.344518    87A      2.361486  
      88A      2.416408    89A      2.465785    90A      2.484682  
      91A      2.523834    92A      2.557523    93A      2.710190  
      94A      2.729767    95A      2.738894    96A      2.790934  
      97A      2.860702    98A      2.931897    99A      2.963048  
     100A      2.987539   101A      3.034689   102A      3.063236  
     103A      3.242762   104A      3.290941   105A      4.237819  
     106A      4.613379   107A      4.720655   108A      4.730834  
     109A      5.023950   110A      5.058466  

    Final Occupation by Irrep:
              A 
    DOCC [    24 ]

  Energy converged.

  @DF-RHF Final Energy:  -270.01224087230958

   => Energetics <=

    Nuclear Repulsion Energy =            255.0281332774527527
    One-Electron Energy =                -872.0324406369039707
    Two-Electron Energy =                 346.9920664871422673
    DFT Exchange-Correlation Energy =       0.0000000000000000
    Empirical Dispersion Energy =           0.0000000000000000
    PCM Polarization Energy =               0.0000000000000000
    EFP Energy =                            0.0000000000000000
    Total Energy =                       -270.0122408723089507

    Alert: EFP and PCM quantities not currently incorporated into SCF psivars.

Properties will be evaluated at   0.000000,   0.000000,   0.000000 Bohr
  ==> Properties <==


Properties computed using the SCF density matrix

  Nuclear Dipole Moment: (a.u.)
     X:    -3.7286      Y:     0.1307      Z:     0.7260

  Electronic Dipole Moment: (a.u.)
     X:     3.5960      Y:    -0.0653      Z:    -0.0727

  Dipole Moment: (a.u.)
     X:    -0.1326      Y:     0.0655      Z:     0.6534     Total:     0.6699

  Dipole Moment: (Debye)
     X:    -0.3370      Y:     0.1664      Z:     1.6607     Total:     1.7027


  Saving occupied orbitals to File 180.

*** tstop() called on cx1-3-2-2.cx1.hpc.ic.ac.uk at Tue Jul  5 16:28:32 2016
Module time:
	user time   =       6.52 seconds =       0.11 minutes
	system time =       0.04 seconds =       0.00 minutes
	total time  =          6 seconds =       0.10 minutes
Total time:
	user time   =       6.52 seconds =       0.11 minutes
	system time =       0.04 seconds =       0.00 minutes
	total time  =          6 seconds =       0.10 minutes


Properties will be evaluated at   0.000000,   0.000000,   0.000000 Bohr

Properties computed using the  density matrix

  Nuclear Dipole Moment: (a.u.)
     X:    -3.7286      Y:     0.1307      Z:     0.7260

  Electronic Dipole Moment: (a.u.)
     X:     3.5960      Y:    -0.0653      Z:    -0.0727

  Dipole Moment: (a.u.)
     X:    -0.1326      Y:     0.0655      Z:     0.6534     Total:     0.6699

  Dipole Moment: (Debye)
     X:    -0.3370      Y:     0.1664      Z:     1.6607     Total:     1.7027

  Quadrupole Moment: (Debye Ang)
    XX:   -38.1026     YY:   -38.8621     ZZ:   -36.7615
    XY:     0.2761     XZ:     4.6820     YZ:    -0.0655

  Traceless Quadrupole Moment: (Debye Ang)
    XX:    -0.1939     YY:    -0.9534     ZZ:     1.1473
    XY:     0.2761     XZ:     4.6820     YZ:    -0.0655

  Mulliken Charges: (a.u.)
   Center  Symbol    Alpha    Beta     Spin     Total
       1     H     0.27973  0.27973  0.00000  0.44054
       2     O     4.37701  4.37701  0.00000 -0.75402
       3     C     2.91138  2.91138  0.00000  0.17724
       4     H     0.43153  0.43153  0.00000  0.13695
       5     C     3.16552  3.16552  0.00000 -0.33105
       6     C     3.16777  3.16777  0.00000 -0.33553
       7     H     0.41149  0.41149  0.00000  0.17701
       8     H     0.41771  0.41771  0.00000  0.16458
       9     C     3.16958  3.16958  0.00000 -0.33917
      10     H     0.41334  0.41334  0.00000  0.17332
      11     H     0.41829  0.41829  0.00000  0.16343
      12     C     3.16989  3.16989  0.00000 -0.33978
      13     H     0.41514  0.41514  0.00000  0.16972
      14     H     0.41839  0.41839  0.00000  0.16322
      15     H     0.41408  0.41408  0.00000  0.17183
      16     H     0.41915  0.41915  0.00000  0.16170

   Total alpha = 24.00000, Total beta = 24.00000, Total charge = -0.00000


*** PSI4 exiting successfully. Buy a developer a beer!
