    -----------------------------------------------------------------------
          Psi4: An Open-Source Ab Initio Electronic Structure Package
                              Psi4 (no tag) Driver

                          Git: Rev {detached?}  

    J. M. Turney, A. C. Simmonett, R. M. Parrish, E. G. Hohenstein,
    F. A. Evangelista, J. T. Fermann, B. J. Mintz, L. A. Burns, J. J. Wilke,
    M. L. Abrams, N. J. Russ, M. L. Leininger, C. L. Janssen, E. T. Seidl,
    W. D. Allen, H. F. Schaefer, R. A. King, E. F. Valeev, C. D. Sherrill,
    and T. D. Crawford, WIREs Comput. Mol. Sci. 2, 556-565 (2012)
    (doi: 10.1002/wcms.93)

                         Additional Contributions by
    A. E. DePrince, M. Saitow, U. Bozkaya, A. Yu. Sokolov
    -----------------------------------------------------------------------


    Psi4 started on: Tue Jul  5 16:29:20 2016

    Process ID:  10319
    PSI4DATADIR: /export131/home/mjharvey/miniconda3/share
    Memory level set to 256.000 MB

  ==> Input File <==

--------------------------------------------------------------------------
set {
	reference rhf
	basis 6-31G*
}


set_num_threads( 1 )
memory 2 gb

molecule MOL {
0 1

H	 0.660009	 1.348402	 -1.901642
C	 0.557503	 1.679937	 -0.867300
N	 0.538815	 0.649616	 0.000000
O	 0.474221	 2.837280	 -0.579499
C	 1.521968	 -0.411503	 0.000000
H	 -0.192644	 0.624219	 0.672761
H	 2.150599	 -0.357004	 -0.881901
H	 0.999455	 -1.354525	 0.000000
H	 2.150599	 -0.357004	 0.881901

	symmetry c1
}
set optking {
	frozen_dihedral = ("
		6 3 5 7
	")
}

ee = energy('scf')
oeprop('DIPOLE', 'QUADRUPOLE', 'MULLIKEN_CHARGES')
f=open( 'psi4out.xyz', 'w' )
f.write( "9  " )
f.write( str(ee) + "\n" )
f.write( MOL.save_string_xyz() )
f.close()
--------------------------------------------------------------------------

  Memory set to   2.000 GiB by Python script.

*** tstart() called on cx1-1-4-3.cx1.hpc.ic.ac.uk
*** at Tue Jul  5 16:29:20 2016


         ---------------------------------------------------------
                                   SCF
            by Justin Turney, Rob Parrish, and Andy Simmonett
                              RHF Reference
                        1 Threads,   2000 MiB Core
         ---------------------------------------------------------

  ==> Geometry <==

    Molecular point group: c1
    Full point group: C1

    Geometry (in Angstrom), charge = 0, multiplicity = 1:

       Center              X                  Y                   Z               Mass       
    ------------   -----------------  -----------------  -----------------  -----------------
           H         -0.117417142797     0.169428074990    -1.547371055512     1.007825032070
           C         -0.219923142797     0.500963074990    -0.513029055512    12.000000000000
           N         -0.238611142797    -0.529357925010     0.354270944488    14.003074004780
           O         -0.303205142797     1.658306074990    -0.225228055512    15.994914619560
           C          0.744541857203    -1.590476925010     0.354270944488    12.000000000000
           H         -0.970070142797    -0.554754925010     1.027031944488     1.007825032070
           H          1.373172857203    -1.535977925010    -0.527630055512     1.007825032070
           H          0.222028857203    -2.533498925010     0.354270944488     1.007825032070
           H          1.373172857203    -1.535977925010     1.236171944488     1.007825032070

  Running in c1 symmetry.

  Rotational constants: A =      1.20276  B =      0.15179  C =      0.14717 [cm^-1]
  Rotational constants: A =  36057.87016  B =   4550.56898  C =   4412.06552 [MHz]
  Nuclear repulsion =  120.554807073088682

  Charge       = 0
  Multiplicity = 1
  Electrons    = 32
  Nalpha       = 16
  Nbeta        = 16

  ==> Algorithm <==

  SCF Algorithm Type is DF.
  DIIS enabled.
  MOM disabled.
  Fractional occupation disabled.
  Guess Type is CORE.
  Energy threshold   = 1.00e-06
  Density threshold  = 1.00e-06
  Integral threshold = 0.00e+00

  ==> Primary Basis <==

  Basis Set: 6-31G*
    Number of shells: 34
    Number of basis function: 70
    Number of Cartesian functions: 70
    Spherical Harmonics?: false
    Max angular momentum: 2

  ==> Pre-Iterations <==

   -------------------------------------------------------
    Irrep   Nso     Nmo     Nalpha   Nbeta   Ndocc  Nsocc
   -------------------------------------------------------
     A         70      70       0       0       0       0
   -------------------------------------------------------
    Total      70      70      16      16      16       0
   -------------------------------------------------------

 OEINTS: Overlap, kinetic, potential, dipole, and quadrupole integrals
         stored in file 35.

  ==> Integral Setup <==

  ==> DFJK: Density-Fitted J/K Matrices <==

    J tasked:                  Yes
    K tasked:                  Yes
    wK tasked:                  No
    OpenMP threads:              1
    Integrals threads:           1
    Memory (MB):              1430
    Algorithm:                Core
    Integral Cache:           NONE
    Schwarz Cutoff:          1E-12
    Fitting Condition:       1E-12

   => Auxiliary Basis Set <=

  Basis Set: 
    Number of shells: 141
    Number of basis function: 449
    Number of Cartesian functions: 449
    Spherical Harmonics?: false
    Max angular momentum: 3

  Minimum eigenvalue in the overlap matrix is 5.0895193102E-03.
  Using Symmetric Orthogonalization.
  SCF Guess: Core (One-Electron) Hamiltonian.

  ==> Iterations <==

                           Total Energy        Delta E     RMS |[F,P]|

   @DF-RHF iter   1:  -166.45205288939906   -1.66452e+02   9.40273e-02 
   @DF-RHF iter   2:  -128.14210319447932    3.83099e+01   8.23925e-02 DIIS
   @DF-RHF iter   3:  -188.41194949558019   -6.02698e+01   6.03147e-02 DIIS
   @DF-RHF iter   4:  -207.17396304783591   -1.87620e+01   1.84471e-02 DIIS
   @DF-RHF iter   5:  -207.79391928823844   -6.19956e-01   7.65574e-03 DIIS
   @DF-RHF iter   6:  -207.91982158811777   -1.25902e-01   2.06307e-03 DIIS
   @DF-RHF iter   7:  -207.93351544919346   -1.36939e-02   7.88643e-04 DIIS
   @DF-RHF iter   8:  -207.93539512391681   -1.87967e-03   3.79087e-04 DIIS
   @DF-RHF iter   9:  -207.93580590553398   -4.10782e-04   1.25301e-04 DIIS
   @DF-RHF iter  10:  -207.93588890460626   -8.29991e-05   3.43892e-05 DIIS
   @DF-RHF iter  11:  -207.93589625539823   -7.35079e-06   1.18952e-05 DIIS
   @DF-RHF iter  12:  -207.93589733690976   -1.08151e-06   5.28540e-06 DIIS
   @DF-RHF iter  13:  -207.93589753058410   -1.93674e-07   9.39110e-07 DIIS

  ==> Post-Iterations <==

    Orbital Energies (a.u.)
    -----------------------

    Doubly Occupied:                                                      

       1A    -20.542314     2A    -15.570467     3A    -11.345824  
       4A    -11.272153     5A     -1.395364     6A     -1.233337  
       7A     -0.962027     8A     -0.836955     9A     -0.699364  
      10A     -0.673147    11A     -0.636265    12A     -0.600370  
      13A     -0.571022    14A     -0.518679    15A     -0.430574  
      16A     -0.383830  

    Virtual:                                                              

      17A      0.175000    18A      0.244269    19A      0.252107  
      20A      0.301029    21A      0.301564    22A      0.321253  
      23A      0.371533    24A      0.445539    25A      0.576360  
      26A      0.699933    27A      0.734477    28A      0.768326  
      29A      0.810784    30A      0.865473    31A      0.955123  
      32A      0.997873    33A      1.030899    34A      1.073133  
      35A      1.088688    36A      1.119073    37A      1.141468  
      38A      1.179062    39A      1.210869    40A      1.217054  
      41A      1.302417    42A      1.308829    43A      1.333023  
      44A      1.426407    45A      1.558687    46A      1.709569  
      47A      1.762072    48A      1.832897    49A      1.912051  
      50A      2.075685    51A      2.123322    52A      2.152025  
      53A      2.222215    54A      2.280281    55A      2.376799  
      56A      2.456989    57A      2.477191    58A      2.584061  
      59A      2.662050    60A      2.698857    61A      2.854394  
      62A      2.964015    63A      3.026973    64A      3.201808  
      65A      3.313056    66A      3.413673    67A      4.260826  
      68A      4.331527    69A      4.615727    70A      4.698362  

    Final Occupation by Irrep:
              A 
    DOCC [    16 ]

  Energy converged.

  @DF-RHF Final Energy:  -207.93589753058410

   => Energetics <=

    Nuclear Repulsion Energy =            120.5548070730886820
    One-Electron Energy =                -521.6380251967073036
    Two-Electron Energy =                 193.1473205930344079
    DFT Exchange-Correlation Energy =       0.0000000000000000
    Empirical Dispersion Energy =           0.0000000000000000
    PCM Polarization Energy =               0.0000000000000000
    EFP Energy =                            0.0000000000000000
    Total Energy =                       -207.9358975305842137

    Alert: EFP and PCM quantities not currently incorporated into SCF psivars.

Properties will be evaluated at   0.000000,   0.000000,   0.000000 Bohr
  ==> Properties <==


Properties computed using the SCF density matrix

  Nuclear Dipole Moment: (a.u.)
     X:     1.7625      Y:    -5.6067      Z:     0.5064

  Electronic Dipole Moment: (a.u.)
     X:    -1.6659      Y:     4.0888      Z:    -0.4627

  Dipole Moment: (a.u.)
     X:     0.0967      Y:    -1.5179      Z:     0.0437     Total:     1.5216

  Dipole Moment: (Debye)
     X:     0.2457      Y:    -3.8580      Z:     0.1111     Total:     3.8675


  Saving occupied orbitals to File 180.

*** tstop() called on cx1-1-4-3.cx1.hpc.ic.ac.uk at Tue Jul  5 16:29:22 2016
Module time:
	user time   =       2.03 seconds =       0.03 minutes
	system time =       0.02 seconds =       0.00 minutes
	total time  =          2 seconds =       0.03 minutes
Total time:
	user time   =       2.03 seconds =       0.03 minutes
	system time =       0.02 seconds =       0.00 minutes
	total time  =          2 seconds =       0.03 minutes


Properties will be evaluated at   0.000000,   0.000000,   0.000000 Bohr

Properties computed using the  density matrix

  Nuclear Dipole Moment: (a.u.)
     X:     1.7625      Y:    -5.6067      Z:     0.5064

  Electronic Dipole Moment: (a.u.)
     X:    -1.6659      Y:     4.0888      Z:    -0.4627

  Dipole Moment: (a.u.)
     X:     0.0967      Y:    -1.5179      Z:     0.0437     Total:     1.5216

  Dipole Moment: (Debye)
     X:     0.2457      Y:    -3.8580      Z:     0.1111     Total:     3.8675

  Quadrupole Moment: (Debye Ang)
    XX:   -22.4724     YY:   -29.2100     ZZ:   -22.4727
    XY:     0.3066     XZ:    -1.2477     YZ:    -0.5705

  Traceless Quadrupole Moment: (Debye Ang)
    XX:     2.2459     YY:    -4.4916     ZZ:     2.2456
    XY:     0.3066     XZ:    -1.2477     YZ:    -0.5705

  Mulliken Charges: (a.u.)
   Center  Symbol    Alpha    Beta     Spin     Total
       1     H     0.43156  0.43156  0.00000  0.13687
       2     C     2.75563  2.75563  0.00000  0.48874
       3     N     3.88259  3.88259  0.00000 -0.76518
       4     O     4.25431  4.25431  0.00000 -0.50861
       5     C     3.13939  3.13939  0.00000 -0.27878
       6     H     0.30463  0.30463  0.00000  0.39074
       7     H     0.41005  0.41005  0.00000  0.17991
       8     H     0.41386  0.41386  0.00000  0.17228
       9     H     0.40798  0.40798  0.00000  0.18403

   Total alpha = 16.00000, Total beta = 16.00000, Total charge =  0.00000


*** PSI4 exiting successfully. Buy a developer a beer!
