    -----------------------------------------------------------------------
          Psi4: An Open-Source Ab Initio Electronic Structure Package
                              Psi4 (no tag) Driver

                          Git: Rev {detached?}  

    J. M. Turney, A. C. Simmonett, R. M. Parrish, E. G. Hohenstein,
    F. A. Evangelista, J. T. Fermann, B. J. Mintz, L. A. Burns, J. J. Wilke,
    M. L. Abrams, N. J. Russ, M. L. Leininger, C. L. Janssen, E. T. Seidl,
    W. D. Allen, H. F. Schaefer, R. A. King, E. F. Valeev, C. D. Sherrill,
    and T. D. Crawford, WIREs Comput. Mol. Sci. 2, 556-565 (2012)
    (doi: 10.1002/wcms.93)

                         Additional Contributions by
    A. E. DePrince, M. Saitow, U. Bozkaya, A. Yu. Sokolov
    -----------------------------------------------------------------------


    Psi4 started on: Tue Jul  5 16:27:07 2016

    Process ID:  17410
    PSI4DATADIR: /export131/home/mjharvey/miniconda3/share
    Memory level set to 256.000 MB

  ==> Input File <==

--------------------------------------------------------------------------
set {
	reference rhf
	basis 6-31G*
}


set_num_threads( 1 )
memory 2 gb

molecule MOL {
0 1

H	 -1.043357	 -1.368781	 0.147961
O	 -1.422729	 -0.573567	 -0.196946
C	 -0.731407	 0.539437	 0.309156
C	 0.680193	 0.672443	 -0.251532
H	 -1.319765	 1.404033	 0.030086
H	 -0.700012	 0.506517	 1.397677
C	 0.752091	 0.528005	 -1.771951
H	 1.079875	 1.638374	 0.043217
H	 1.304879	 -0.086399	 0.214801
H	 0.196828	 1.315991	 -2.271908
H	 1.777501	 0.588093	 -2.121077
H	 0.349335	 -0.428032	 -2.097594

	symmetry c1
}
set optking {
	frozen_dihedral = ("
		8 4 3 2
	")
}

ee = energy('scf')
oeprop('DIPOLE', 'QUADRUPOLE', 'MULLIKEN_CHARGES')
f=open( 'psi4out.xyz', 'w' )
f.write( "12  " )
f.write( str(ee) + "\n" )
f.write( MOL.save_string_xyz() )
f.close()
--------------------------------------------------------------------------

  Memory set to   2.000 GiB by Python script.

*** tstart() called on cx1-1-3-4.cx1.hpc.ic.ac.uk
*** at Tue Jul  5 16:27:07 2016


         ---------------------------------------------------------
                                   SCF
            by Justin Turney, Rob Parrish, and Andy Simmonett
                              RHF Reference
                        1 Threads,   2000 MiB Core
         ---------------------------------------------------------

  ==> Geometry <==

    Molecular point group: c1
    Full point group: C1

    Geometry (in Angstrom), charge = 0, multiplicity = 1:

       Center              X                  Y                   Z               Mass       
    ------------   -----------------  -----------------  -----------------  -----------------
           H         -0.832097068451    -1.623573337081     0.621096383842     1.007825032070
           O         -1.211469068451    -0.828359337081     0.276189383842    15.994914619560
           C         -0.520147068451     0.284644662919     0.782291383842    12.000000000000
           C          0.891452931549     0.417650662919     0.221603383842    12.000000000000
           H         -1.108505068451     1.149240662919     0.503221383842     1.007825032070
           H         -0.488752068451     0.251724662919     1.870812383842     1.007825032070
           C          0.963350931549     0.273212662919    -1.298815616158    12.000000000000
           H          1.291134931549     1.383581662919     0.516352383842     1.007825032070
           H          1.516138931549    -0.341191337081     0.687936383842     1.007825032070
           H          0.408087931549     1.061198662919    -1.798772616158     1.007825032070
           H          1.988760931549     0.333300662919    -1.647941616158     1.007825032070
           H          0.560594931549    -0.682824337081    -1.624458616158     1.007825032070

  Running in c1 symmetry.

  Rotational constants: A =      0.46214  B =      0.17728  C =      0.14538 [cm^-1]
  Rotational constants: A =  13854.75773  B =   5314.69335  C =   4358.43781 [MHz]
  Nuclear repulsion =  133.395248656480248

  Charge       = 0
  Multiplicity = 1
  Electrons    = 34
  Nalpha       = 17
  Nbeta        = 17

  ==> Algorithm <==

  SCF Algorithm Type is DF.
  DIIS enabled.
  MOM disabled.
  Fractional occupation disabled.
  Guess Type is CORE.
  Energy threshold   = 1.00e-06
  Density threshold  = 1.00e-06
  Integral threshold = 0.00e+00

  ==> Primary Basis <==

  Basis Set: 6-31G*
    Number of shells: 40
    Number of basis function: 76
    Number of Cartesian functions: 76
    Spherical Harmonics?: false
    Max angular momentum: 2

  ==> Pre-Iterations <==

   -------------------------------------------------------
    Irrep   Nso     Nmo     Nalpha   Nbeta   Ndocc  Nsocc
   -------------------------------------------------------
     A         76      76       0       0       0       0
   -------------------------------------------------------
    Total      76      76      17      17      17       0
   -------------------------------------------------------

 OEINTS: Overlap, kinetic, potential, dipole, and quadrupole integrals
         stored in file 35.

  ==> Integral Setup <==

  ==> DFJK: Density-Fitted J/K Matrices <==

    J tasked:                  Yes
    K tasked:                  Yes
    wK tasked:                  No
    OpenMP threads:              1
    Integrals threads:           1
    Memory (MB):              1430
    Algorithm:                Core
    Integral Cache:           NONE
    Schwarz Cutoff:          1E-12
    Fitting Condition:       1E-12

   => Auxiliary Basis Set <=

  Basis Set: 
    Number of shells: 168
    Number of basis function: 524
    Number of Cartesian functions: 524
    Spherical Harmonics?: false
    Max angular momentum: 3

  Minimum eigenvalue in the overlap matrix is 5.0613188001E-03.
  Using Symmetric Orthogonalization.
  SCF Guess: Core (One-Electron) Hamiltonian.

  ==> Iterations <==

                           Total Energy        Delta E     RMS |[F,P]|

   @DF-RHF iter   1:  -155.98437876041010   -1.55984e+02   8.73230e-02 
   @DF-RHF iter   2:  -123.15022185875245    3.28342e+01   7.65691e-02 DIIS
   @DF-RHF iter   3:  -162.75548499245224   -3.96053e+01   6.75264e-02 DIIS
   @DF-RHF iter   4:  -192.15473861071325   -2.93993e+01   1.78897e-02 DIIS
   @DF-RHF iter   5:  -193.05814379733340   -9.03405e-01   4.02330e-03 DIIS
   @DF-RHF iter   6:  -193.10588435345016   -4.77406e-02   9.65943e-04 DIIS
   @DF-RHF iter   7:  -193.10916113465049   -3.27678e-03   2.48669e-04 DIIS
   @DF-RHF iter   8:  -193.10944348865041   -2.82354e-04   7.44563e-05 DIIS
   @DF-RHF iter   9:  -193.10946873479918   -2.52461e-05   2.59111e-05 DIIS
   @DF-RHF iter  10:  -193.10947118735299   -2.45255e-06   7.43973e-06 DIIS
   @DF-RHF iter  11:  -193.10947143525920   -2.47906e-07   2.39237e-06 DIIS
   @DF-RHF iter  12:  -193.10947146293597   -2.76768e-08   5.08701e-07 DIIS

  ==> Post-Iterations <==

    Orbital Energies (a.u.)
    -----------------------

    Doubly Occupied:                                                      

       1A    -20.554409     2A    -11.268239     3A    -11.218792  
       4A    -11.206992     5A     -1.361353     6A     -1.047360  
       7A     -0.921960     8A     -0.811260     9A     -0.682170  
      10A     -0.640017    11A     -0.621979    12A     -0.567226  
      13A     -0.526017    14A     -0.516786    15A     -0.485428  
      16A     -0.464816    17A     -0.431151  

    Virtual:                                                              

      18A      0.217169    19A      0.267254    20A      0.289075  
      21A      0.296166    22A      0.316026    23A      0.325901  
      24A      0.341762    25A      0.360244    26A      0.395836  
      27A      0.419459    28A      0.457028    29A      0.720116  
      30A      0.731755    31A      0.764398    32A      0.779964  
      33A      0.826754    34A      0.911690    35A      0.932506  
      36A      0.971967    37A      1.034178    38A      1.088883  
      39A      1.144374    40A      1.154475    41A      1.162797  
      42A      1.192728    43A      1.208966    44A      1.221812  
      45A      1.238668    46A      1.257435    47A      1.280192  
      48A      1.352003    49A      1.437968    50A      1.582694  
      51A      1.695947    52A      1.743104    53A      1.811161  
      54A      1.841527    55A      1.971174    56A      2.030068  
      57A      2.109341    58A      2.174940    59A      2.285082  
      60A      2.313446    61A      2.388733    62A      2.463573  
      63A      2.520748    64A      2.568226    65A      2.666099  
      66A      2.703663    67A      2.745529    68A      2.784047  
      69A      2.859791    70A      3.006765    71A      3.045787  
      72A      3.211271    73A      4.178839    74A      4.589624  
      75A      4.737534    76A      4.907806  

    Final Occupation by Irrep:
              A 
    DOCC [    17 ]

  Energy converged.

  @DF-RHF Final Energy:  -193.10947146293597

   => Energetics <=

    Nuclear Repulsion Energy =            133.3952486564802484
    One-Electron Energy =                -526.3576113526667086
    Two-Electron Energy =                 199.8528912332503751
    DFT Exchange-Correlation Energy =       0.0000000000000000
    Empirical Dispersion Energy =           0.0000000000000000
    PCM Polarization Energy =               0.0000000000000000
    EFP Energy =                            0.0000000000000000
    Total Energy =                       -193.1094714629360851

    Alert: EFP and PCM quantities not currently incorporated into SCF psivars.

Properties will be evaluated at   0.000000,   0.000000,   0.000000 Bohr
  ==> Properties <==


Properties computed using the SCF density matrix

  Nuclear Dipole Moment: (a.u.)
     X:     3.1210      Y:     1.4317      Z:    -0.8159

  Electronic Dipole Moment: (a.u.)
     X:    -2.5693      Y:    -1.4851      Z:     1.2440

  Dipole Moment: (a.u.)
     X:     0.5517      Y:    -0.0534      Z:     0.4281     Total:     0.7003

  Dipole Moment: (Debye)
     X:     1.4022      Y:    -0.1356      Z:     1.0880     Total:     1.7800


  Saving occupied orbitals to File 180.

*** tstop() called on cx1-1-3-4.cx1.hpc.ic.ac.uk at Tue Jul  5 16:27:10 2016
Module time:
	user time   =       2.85 seconds =       0.05 minutes
	system time =       0.04 seconds =       0.00 minutes
	total time  =          3 seconds =       0.05 minutes
Total time:
	user time   =       2.85 seconds =       0.05 minutes
	system time =       0.04 seconds =       0.00 minutes
	total time  =          3 seconds =       0.05 minutes


Properties will be evaluated at   0.000000,   0.000000,   0.000000 Bohr

Properties computed using the  density matrix

  Nuclear Dipole Moment: (a.u.)
     X:     3.1210      Y:     1.4317      Z:    -0.8159

  Electronic Dipole Moment: (a.u.)
     X:    -2.5693      Y:    -1.4851      Z:     1.2440

  Dipole Moment: (a.u.)
     X:     0.5517      Y:    -0.0534      Z:     0.4281     Total:     0.7003

  Dipole Moment: (Debye)
     X:     1.4022      Y:    -0.1356      Z:     1.0880     Total:     1.7800

  Quadrupole Moment: (Debye Ang)
    XX:   -30.1146     YY:   -23.4198     ZZ:   -26.0912
    XY:    -1.1931     XZ:    -0.3453     YZ:    -1.2616

  Traceless Quadrupole Moment: (Debye Ang)
    XX:    -3.5728     YY:     3.1221     ZZ:     0.4507
    XY:    -1.1931     XZ:    -0.3453     YZ:    -1.2616

  Mulliken Charges: (a.u.)
   Center  Symbol    Alpha    Beta     Spin     Total
       1     H     0.28305  0.28305  0.00000  0.43390
       2     O     4.36754  4.36754  0.00000 -0.73509
       3     C     2.99579  2.99579  0.00000  0.00843
       4     C     3.16946  3.16946  0.00000 -0.33893
       5     H     0.41662  0.41662  0.00000  0.16676
       6     H     0.42844  0.42844  0.00000  0.14313
       7     C     3.23685  3.23685  0.00000 -0.47369
       8     H     0.42069  0.42069  0.00000  0.15862
       9     H     0.42706  0.42706  0.00000  0.14588
      10     H     0.42068  0.42068  0.00000  0.15864
      11     H     0.42128  0.42128  0.00000  0.15744
      12     H     0.41255  0.41255  0.00000  0.17491

   Total alpha = 17.00000, Total beta = 17.00000, Total charge = -0.00000


*** PSI4 exiting successfully. Buy a developer a beer!
