    -----------------------------------------------------------------------
          Psi4: An Open-Source Ab Initio Electronic Structure Package
                              Psi4 (no tag) Driver

                          Git: Rev {detached?}  

    J. M. Turney, A. C. Simmonett, R. M. Parrish, E. G. Hohenstein,
    F. A. Evangelista, J. T. Fermann, B. J. Mintz, L. A. Burns, J. J. Wilke,
    M. L. Abrams, N. J. Russ, M. L. Leininger, C. L. Janssen, E. T. Seidl,
    W. D. Allen, H. F. Schaefer, R. A. King, E. F. Valeev, C. D. Sherrill,
    and T. D. Crawford, WIREs Comput. Mol. Sci. 2, 556-565 (2012)
    (doi: 10.1002/wcms.93)

                         Additional Contributions by
    A. E. DePrince, M. Saitow, U. Bozkaya, A. Yu. Sokolov
    -----------------------------------------------------------------------


    Psi4 started on: Tue Jul  5 16:52:45 2016

    Process ID:  17241
    PSI4DATADIR: /export131/home/mjharvey/miniconda3/share
    Memory level set to 256.000 MB

  ==> Input File <==

--------------------------------------------------------------------------
set {
	reference rhf
	basis 6-31G*
}


set_num_threads( 1 )
memory 2 gb

molecule MOL {
0 1

H	 -2.071057	 2.293933	 -0.017530
C	 -1.693085	 1.288716	 -0.010250
C	 -2.554929	 0.205159	 -0.001434
C	 -0.333340	 1.062794	 -0.009676
H	 -3.618787	 0.360553	 -0.001830
C	 -2.054392	 -1.083291	 0.007859
H	 0.359203	 1.878339	 -0.016520
C	 0.154804	 -0.237046	 -0.000077
H	 -2.739577	 -1.910682	 0.014420
C	 -0.687514	 -1.353937	 0.009042
N	 1.611208	 -0.370857	 -0.000034
C	 -0.251309	 -2.802573	 0.019428
O	 2.274126	 0.622059	 -0.008063
O	 2.068510	 -1.474748	 0.007823
H	 0.344405	 -3.032059	 0.892119
H	 -1.128868	 -3.436815	 0.021346
H	 0.348666	 -3.043323	 -0.847285

	symmetry c1
}
ee = energy('scf')
oeprop('DIPOLE', 'QUADRUPOLE', 'MULLIKEN_CHARGES')
f=open( 'psi4out.xyz', 'w' )
f.write( "17  " )
f.write( str(ee) + "\n" )
f.write( MOL.save_string_xyz() )
f.close()
--------------------------------------------------------------------------

  Memory set to   2.000 GiB by Python script.

*** tstart() called on cx1-3-4-1.cx1.hpc.ic.ac.uk
*** at Tue Jul  5 16:52:46 2016


         ---------------------------------------------------------
                                   SCF
            by Justin Turney, Rob Parrish, and Andy Simmonett
                              RHF Reference
                        1 Threads,   2000 MiB Core
         ---------------------------------------------------------

  ==> Geometry <==

    Molecular point group: c1
    Full point group: C1

    Geometry (in Angstrom), charge = 0, multiplicity = 1:

       Center              X                  Y                   Z               Mass       
    ------------   -----------------  -----------------  -----------------  -----------------
           H         -2.030284343376     2.737705060508    -0.019131333593     1.007825032070
           C         -1.652312343376     1.732488060508    -0.011851333593    12.000000000000
           C         -2.514156343376     0.648931060508    -0.003035333593    12.000000000000
           C         -0.292567343376     1.506566060508    -0.011277333593    12.000000000000
           H         -3.578014343376     0.804325060508    -0.003431333593     1.007825032070
           C         -2.013619343376    -0.639518939492     0.006257666407    12.000000000000
           H          0.399975656624     2.322111060508    -0.018121333593     1.007825032070
           C          0.195576656624     0.206726060508    -0.001678333593    12.000000000000
           H         -2.698804343376    -1.466909939492     0.012818666407     1.007825032070
           C         -0.646741343376    -0.910164939492     0.007440666407    12.000000000000
           N          1.651980656624     0.072915060508    -0.001635333593    14.003074004780
           C         -0.210536343376    -2.358800939492     0.017826666407    12.000000000000
           O          2.314898656624     1.065831060508    -0.009664333593    15.994914619560
           O          2.109282656624    -1.030975939492     0.006221666407    15.994914619560
           H          0.385177656624    -2.588286939492     0.890517666407     1.007825032070
           H         -1.088095343376    -2.993042939492     0.019744666407     1.007825032070
           H          0.389438656624    -2.599550939492    -0.848886333593     1.007825032070

  Running in c1 symmetry.

  Rotational constants: A =      0.07612  B =      0.04310  C =      0.02766 [cm^-1]
  Rotational constants: A =   2281.93576  B =   1292.11364  C =    829.10739 [MHz]
  Nuclear repulsion =  509.790165366184567

  Charge       = 0
  Multiplicity = 1
  Electrons    = 72
  Nalpha       = 36
  Nbeta        = 36

  ==> Algorithm <==

  SCF Algorithm Type is DF.
  DIIS enabled.
  MOM disabled.
  Fractional occupation disabled.
  Guess Type is CORE.
  Energy threshold   = 1.00e-06
  Density threshold  = 1.00e-06
  Integral threshold = 0.00e+00

  ==> Primary Basis <==

  Basis Set: 6-31G*
    Number of shells: 74
    Number of basis function: 164
    Number of Cartesian functions: 164
    Spherical Harmonics?: false
    Max angular momentum: 2

  ==> Pre-Iterations <==

   -------------------------------------------------------
    Irrep   Nso     Nmo     Nalpha   Nbeta   Ndocc  Nsocc
   -------------------------------------------------------
     A        164     164       0       0       0       0
   -------------------------------------------------------
    Total     164     164      36      36      36       0
   -------------------------------------------------------

 OEINTS: Overlap, kinetic, potential, dipole, and quadrupole integrals
         stored in file 35.

  ==> Integral Setup <==

  ==> DFJK: Density-Fitted J/K Matrices <==

    J tasked:                  Yes
    K tasked:                  Yes
    wK tasked:                  No
    OpenMP threads:              1
    Integrals threads:           1
    Memory (MB):              1430
    Algorithm:                Core
    Integral Cache:           NONE
    Schwarz Cutoff:          1E-12
    Fitting Condition:       1E-12

   => Auxiliary Basis Set <=

  Basis Set: 
    Number of shells: 303
    Number of basis function: 985
    Number of Cartesian functions: 985
    Spherical Harmonics?: false
    Max angular momentum: 3

  Minimum eigenvalue in the overlap matrix is 3.7315544081E-04.
  Using Symmetric Orthogonalization.
  SCF Guess: Core (One-Electron) Hamiltonian.

  ==> Iterations <==

                           Total Energy        Delta E     RMS |[F,P]|

   @DF-RHF iter   1:  -358.86292020512241   -3.58863e+02   6.72500e-02 
   @DF-RHF iter   2:  -293.11528421721431    6.57476e+01   5.84126e-02 DIIS
   @DF-RHF iter   3:  -356.29097758688039   -6.31757e+01   6.04295e-02 DIIS
   @DF-RHF iter   4:  -444.95820302237604   -8.86672e+01   4.02273e-02 DIIS
   @DF-RHF iter   5:  -454.30945741948830   -9.35125e+00   3.20668e-02 DIIS
   @DF-RHF iter   6:  -471.07248134293042   -1.67630e+01   9.94046e-03 DIIS
   @DF-RHF iter   7:  -472.65812619540696   -1.58564e+00   5.91883e-03 DIIS
   @DF-RHF iter   8:  -473.17663401699798   -5.18508e-01   1.16734e-03 DIIS
   @DF-RHF iter   9:  -473.20112446652291   -2.44904e-02   5.03095e-04 DIIS
   @DF-RHF iter  10:  -473.20467970908754   -3.55524e-03   3.05703e-04 DIIS
   @DF-RHF iter  11:  -473.20615368030298   -1.47397e-03   1.07077e-04 DIIS
   @DF-RHF iter  12:  -473.20638118188327   -2.27502e-04   4.28438e-05 DIIS
   @DF-RHF iter  13:  -473.20642257702372   -4.13951e-05   1.30064e-05 DIIS
   @DF-RHF iter  14:  -473.20642884498892   -6.26797e-06   5.89737e-06 DIIS
   @DF-RHF iter  15:  -473.20643015433706   -1.30935e-06   2.72327e-06 DIIS
   @DF-RHF iter  16:  -473.20643038814757   -2.33811e-07   9.75303e-07 DIIS

  ==> Post-Iterations <==

    Orbital Energies (a.u.)
    -----------------------

    Doubly Occupied:                                                      

       1A    -20.596943     2A    -20.596598     3A    -15.853128  
       4A    -11.300987     5A    -11.283433     6A    -11.265752  
       7A    -11.264761     8A    -11.253790     9A    -11.252890  
      10A    -11.232209    11A     -1.631486    12A     -1.413235  
      13A     -1.199261    14A     -1.091231    15A     -1.071496  
      16A     -0.979756    17A     -0.929962    18A     -0.846235  
      19A     -0.823120    20A     -0.768436    21A     -0.731201  
      22A     -0.724690    23A     -0.693047    24A     -0.664655  
      25A     -0.638007    26A     -0.597578    27A     -0.588107  
      28A     -0.561101    29A     -0.540806    30A     -0.519867  
      31A     -0.518609    32A     -0.484667    33A     -0.475528  
      34A     -0.448076    35A     -0.370262    36A     -0.353432  

    Virtual:                                                              

      37A      0.064050    38A      0.123720    39A      0.176490  
      40A      0.225383    41A      0.258767    42A      0.278973  
      43A      0.304555    44A      0.312708    45A      0.315001  
      46A      0.338444    47A      0.381743    48A      0.391625  
      49A      0.403149    50A      0.457440    51A      0.477892  
      52A      0.496767    53A      0.530828    54A      0.534537  
      55A      0.608937    56A      0.677293    57A      0.700493  
      58A      0.711826    59A      0.727650    60A      0.749385  
      61A      0.770929    62A      0.793698    63A      0.799477  
      64A      0.810140    65A      0.821880    66A      0.827305  
      67A      0.842922    68A      0.853348    69A      0.890723  
      70A      0.896551    71A      0.919792    72A      0.948567  
      73A      0.980341    74A      0.986627    75A      1.035034  
      76A      1.055468    77A      1.077326    78A      1.082730  
      79A      1.091200    80A      1.103566    81A      1.147136  
      82A      1.150329    83A      1.170121    84A      1.183581  
      85A      1.203269    86A      1.230791    87A      1.257674  
      88A      1.258092    89A      1.275800    90A      1.296578  
      91A      1.309140    92A      1.312229    93A      1.318724  
      94A      1.390047    95A      1.449159    96A      1.476932  
      97A      1.489663    98A      1.534897    99A      1.559133  
     100A      1.619226   101A      1.629683   102A      1.636407  
     103A      1.676430   104A      1.703690   105A      1.705154  
     106A      1.725109   107A      1.745527   108A      1.757909  
     109A      1.894112   110A      1.985214   111A      2.002299  
     112A      2.047158   113A      2.059670   114A      2.094777  
     115A      2.115545   116A      2.118415   117A      2.137458  
     118A      2.198928   119A      2.222061   120A      2.244779  
     121A      2.264425   122A      2.279399   123A      2.288635  
     124A      2.356836   125A      2.387716   126A      2.442420  
     127A      2.457103   128A      2.463954   129A      2.470137  
     130A      2.499696   131A      2.541664   132A      2.548842  
     133A      2.600099   134A      2.600274   135A      2.635591  
     136A      2.705451   137A      2.718208   138A      2.808505  
     139A      2.901473   140A      2.903513   141A      2.958781  
     142A      2.962107   143A      2.977083   144A      3.062044  
     145A      3.090493   146A      3.098605   147A      3.126244  
     148A      3.198332   149A      3.276150   150A      3.293807  
     151A      3.321549   152A      3.499018   153A      3.626571  
     154A      3.823506   155A      4.200995   156A      4.348304  
     157A      4.503255   158A      4.506212   159A      4.528399  
     160A      4.548108   161A      4.686526   162A      4.775841  
     163A      4.816059   164A      5.140151  

    Final Occupation by Irrep:
              A 
    DOCC [    36 ]

  Energy converged.

  @DF-RHF Final Energy:  -473.20643038814757

   => Energetics <=

    Nuclear Repulsion Energy =            509.7901653661845671
    One-Electron Energy =               -1654.8646053823945294
    Two-Electron Energy =                 671.8680096280629641
    DFT Exchange-Correlation Energy =       0.0000000000000000
    Empirical Dispersion Energy =           0.0000000000000000
    PCM Polarization Energy =               0.0000000000000000
    EFP Energy =                            0.0000000000000000
    Total Energy =                       -473.2064303881470551

    Alert: EFP and PCM quantities not currently incorporated into SCF psivars.

Properties will be evaluated at   0.000000,   0.000000,   0.000000 Bohr
  ==> Properties <==


Properties computed using the SCF density matrix

  Nuclear Dipole Moment: (a.u.)
     X:    -7.6901      Y:    -3.5471      Z:     0.0314

  Electronic Dipole Moment: (a.u.)
     X:     5.7859      Y:     3.5935      Z:    -0.0304

  Dipole Moment: (a.u.)
     X:    -1.9042      Y:     0.0464      Z:     0.0010     Total:     1.9048

  Dipole Moment: (Debye)
     X:    -4.8400      Y:     0.1178      Z:     0.0025     Total:     4.8415


  Saving occupied orbitals to File 180.

*** tstop() called on cx1-3-4-1.cx1.hpc.ic.ac.uk at Tue Jul  5 16:53:09 2016
Module time:
	user time   =      23.07 seconds =       0.38 minutes
	system time =       0.24 seconds =       0.00 minutes
	total time  =         23 seconds =       0.38 minutes
Total time:
	user time   =      23.07 seconds =       0.38 minutes
	system time =       0.24 seconds =       0.00 minutes
	total time  =         23 seconds =       0.38 minutes


Properties will be evaluated at   0.000000,   0.000000,   0.000000 Bohr

Properties computed using the  density matrix

  Nuclear Dipole Moment: (a.u.)
     X:    -7.6901      Y:    -3.5471      Z:     0.0314

  Electronic Dipole Moment: (a.u.)
     X:     5.7859      Y:     3.5935      Z:    -0.0304

  Dipole Moment: (a.u.)
     X:    -1.9042      Y:     0.0464      Z:     0.0010     Total:     1.9048

  Dipole Moment: (Debye)
     X:    -4.8400      Y:     0.1178      Z:     0.0025     Total:     4.8415

  Quadrupole Moment: (Debye Ang)
    XX:   -62.0320     YY:   -53.1076     ZZ:   -59.1588
    XY:    -0.8830     XZ:     0.0087     YZ:    -0.0454

  Traceless Quadrupole Moment: (Debye Ang)
    XX:    -3.9326     YY:     4.9919     ZZ:    -1.0594
    XY:    -0.8830     XZ:     0.0087     YZ:    -0.0454

  Mulliken Charges: (a.u.)
   Center  Symbol    Alpha    Beta     Spin     Total
       1     H     0.38932  0.38932  0.00000  0.22135
       2     C     3.11187  3.11187  0.00000 -0.22375
       3     C     3.08028  3.08028  0.00000 -0.16057
       4     C     3.08472  3.08472  0.00000 -0.16944
       5     H     0.38933  0.38933  0.00000  0.22134
       6     C     3.12619  3.12619  0.00000 -0.25239
       7     H     0.36267  0.36267  0.00000  0.27467
       8     C     2.93737  2.93737  0.00000  0.12526
       9     H     0.39262  0.39262  0.00000  0.21476
      10     C     2.96303  2.96303  0.00000  0.07394
      11     N     3.24156  3.24156  0.00000  0.51687
      12     C     3.23463  3.23463  0.00000 -0.46926
      13     O     4.23766  4.23766  0.00000 -0.47532
      14     O     4.23789  4.23789  0.00000 -0.47578
      15     H     0.39770  0.39770  0.00000  0.20461
      16     H     0.41557  0.41557  0.00000  0.16887
      17     H     0.39758  0.39758  0.00000  0.20484

   Total alpha = 36.00000, Total beta = 36.00000, Total charge =  0.00000


*** PSI4 exiting successfully. Buy a developer a beer!
