    -----------------------------------------------------------------------
          Psi4: An Open-Source Ab Initio Electronic Structure Package
                              Psi4 (no tag) Driver

                          Git: Rev {detached?}  

    J. M. Turney, A. C. Simmonett, R. M. Parrish, E. G. Hohenstein,
    F. A. Evangelista, J. T. Fermann, B. J. Mintz, L. A. Burns, J. J. Wilke,
    M. L. Abrams, N. J. Russ, M. L. Leininger, C. L. Janssen, E. T. Seidl,
    W. D. Allen, H. F. Schaefer, R. A. King, E. F. Valeev, C. D. Sherrill,
    and T. D. Crawford, WIREs Comput. Mol. Sci. 2, 556-565 (2012)
    (doi: 10.1002/wcms.93)

                         Additional Contributions by
    A. E. DePrince, M. Saitow, U. Bozkaya, A. Yu. Sokolov
    -----------------------------------------------------------------------


    Psi4 started on: Tue Jul  5 16:20:02 2016

    Process ID:  18706
    PSI4DATADIR: /export131/home/mjharvey/miniconda3/share
    Memory level set to 256.000 MB

  ==> Input File <==

--------------------------------------------------------------------------
set {
	reference rhf
	basis 6-31G*
}


set_num_threads( 1 )
memory 2 gb

molecule MOL {
0 1

H	 -1.109878	 -0.804348	 0.348691
N	 -0.712608	 0.000013	 -0.096317
C	 0.734016	 -0.000004	 0.040602
H	 -1.109902	 0.804284	 0.348839
H	 1.139723	 -0.873598	 -0.456470
H	 1.139763	 0.873831	 -0.456107
H	 1.096280	 -0.000300	 1.069648

	symmetry c1
}
ee = energy('scf')
oeprop('DIPOLE', 'QUADRUPOLE', 'MULLIKEN_CHARGES')
oeprop('GRID_ESP')
f=open( 'psi4out.xyz', 'w' )
f.write( "7  " )
f.write( str(ee) + "\n" )
f.write( MOL.save_string_xyz() )
f.close()
--------------------------------------------------------------------------

  Memory set to   2.000 GiB by Python script.

*** tstart() called on cx1-3-15-2.cx1.hpc.ic.ac.uk
*** at Tue Jul  5 16:20:02 2016


         ---------------------------------------------------------
                                   SCF
            by Justin Turney, Rob Parrish, and Andy Simmonett
                              RHF Reference
                        1 Threads,   2000 MiB Core
         ---------------------------------------------------------

  ==> Geometry <==

    Molecular point group: c1
    Full point group: C1

    Geometry (in Angstrom), charge = 0, multiplicity = 1:

       Center              X                  Y                   Z               Mass       
    ------------   -----------------  -----------------  -----------------  -----------------
           H         -1.109701500492    -0.804348064908     0.348698145070     1.007825032070
           N         -0.712431500492     0.000012935092    -0.096309854930    14.003074004780
           C          0.734192499508    -0.000004064908     0.040609145070    12.000000000000
           H         -1.109725500492     0.804283935092     0.348846145070     1.007825032070
           H          1.139899499508    -0.873598064908    -0.456462854930     1.007825032070
           H          1.139939499508     0.873830935092    -0.456099854930     1.007825032070
           H          1.096456499508    -0.000300064908     1.069655145070     1.007825032070

  Running in c1 symmetry.

  Rotational constants: A =      3.52292  B =      0.77129  C =      0.74078 [cm^-1]
  Rotational constants: A = 105614.52554  B =  23122.63652  C =  22207.93983 [MHz]
  Nuclear repulsion =   42.335791329340545

  Charge       = 0
  Multiplicity = 1
  Electrons    = 18
  Nalpha       = 9
  Nbeta        = 9

  ==> Algorithm <==

  SCF Algorithm Type is DF.
  DIIS enabled.
  MOM disabled.
  Fractional occupation disabled.
  Guess Type is CORE.
  Energy threshold   = 1.00e-06
  Density threshold  = 1.00e-06
  Integral threshold = 0.00e+00

  ==> Primary Basis <==

  Basis Set: 6-31G*
    Number of shells: 22
    Number of basis function: 40
    Number of Cartesian functions: 40
    Spherical Harmonics?: false
    Max angular momentum: 2

  ==> Pre-Iterations <==

   -------------------------------------------------------
    Irrep   Nso     Nmo     Nalpha   Nbeta   Ndocc  Nsocc
   -------------------------------------------------------
     A         40      40       0       0       0       0
   -------------------------------------------------------
    Total      40      40       9       9       9       0
   -------------------------------------------------------

 OEINTS: Overlap, kinetic, potential, dipole, and quadrupole integrals
         stored in file 35.

  ==> Integral Setup <==

  ==> DFJK: Density-Fitted J/K Matrices <==

    J tasked:                  Yes
    K tasked:                  Yes
    wK tasked:                  No
    OpenMP threads:              1
    Integrals threads:           1
    Memory (MB):              1430
    Algorithm:                Core
    Integral Cache:           NONE
    Schwarz Cutoff:          1E-12
    Fitting Condition:       1E-12

   => Auxiliary Basis Set <=

  Basis Set: 
    Number of shells: 93
    Number of basis function: 287
    Number of Cartesian functions: 287
    Spherical Harmonics?: false
    Max angular momentum: 3

  Minimum eigenvalue in the overlap matrix is 8.9524219466E-03.
  Using Symmetric Orthogonalization.
  SCF Guess: Core (One-Electron) Hamiltonian.

  ==> Iterations <==

                           Total Energy        Delta E     RMS |[F,P]|

   @DF-RHF iter   1:   -79.81740263498764   -7.98174e+01   1.10409e-01 
   @DF-RHF iter   2:   -82.99019795960618   -3.17280e+00   7.45666e-02 DIIS
   @DF-RHF iter   3:   -93.92278181133972   -1.09326e+01   4.16532e-02 DIIS
   @DF-RHF iter   4:   -95.01427736494364   -1.09150e+00   1.49795e-02 DIIS
   @DF-RHF iter   5:   -95.18091295304859   -1.66636e-01   5.89740e-03 DIIS
   @DF-RHF iter   6:   -95.20908035970294   -2.81674e-02   6.26692e-04 DIIS
   @DF-RHF iter   7:   -95.20971056620081   -6.30206e-04   2.63903e-04 DIIS
   @DF-RHF iter   8:   -95.20979269151113   -8.21253e-05   4.13268e-05 DIIS
   @DF-RHF iter   9:   -95.20979523661552   -2.54510e-06   7.73350e-06 DIIS
   @DF-RHF iter  10:   -95.20979534480924   -1.08194e-07   1.91766e-06 DIIS
   @DF-RHF iter  11:   -95.20979535110465   -6.29541e-09   3.67694e-07 DIIS

  ==> Post-Iterations <==

    Orbital Energies (a.u.)
    -----------------------

    Doubly Occupied:                                                      

       1A    -15.534879     2A    -11.237460     3A     -1.170967  
       4A     -0.896610     5A     -0.664615     6A     -0.602980  
       7A     -0.557164     8A     -0.517487     9A     -0.383796  

    Virtual:                                                              

      10A      0.229097    11A      0.288038    12A      0.308755  
      13A      0.332313    14A      0.338046    15A      0.420752  
      16A      0.765808    17A      0.778773    18A      0.791396  
      19A      0.974026    20A      0.999246    21A      1.053585  
      22A      1.140258    23A      1.196974    24A      1.218434  
      25A      1.235387    26A      1.256276    27A      1.283677  
      28A      1.627715    29A      1.812617    30A      1.826391  
      31A      2.212088    32A      2.373928    33A      2.376684  
      34A      2.528691    35A      2.669339    36A      2.715393  
      37A      2.825142    38A      3.017992    39A      4.192841  
      40A      4.675689  

    Final Occupation by Irrep:
              A 
    DOCC [     9 ]

  Energy converged.

  @DF-RHF Final Energy:   -95.20979535110465

   => Energetics <=

    Nuclear Repulsion Energy =             42.3357913293405446
    One-Electron Energy =                -211.9592134763779256
    Two-Electron Energy =                  74.4136267959327569
    DFT Exchange-Correlation Energy =       0.0000000000000000
    Empirical Dispersion Energy =           0.0000000000000000
    PCM Polarization Energy =               0.0000000000000000
    EFP Energy =                            0.0000000000000000
    Total Energy =                        -95.2097953511046313

    Alert: EFP and PCM quantities not currently incorporated into SCF psivars.

Properties will be evaluated at   0.000000,   0.000000,   0.000000 Bohr
  ==> Properties <==


Properties computed using the SCF density matrix

  Nuclear Dipole Moment: (a.u.)
     X:     1.0866      Y:    -0.0001      Z:     0.8015

  Electronic Dipole Moment: (a.u.)
     X:    -0.9814      Y:     0.0001      Z:    -0.2076

  Dipole Moment: (a.u.)
     X:     0.1052      Y:    -0.0001      Z:     0.5939     Total:     0.6032

  Dipole Moment: (Debye)
     X:     0.2673      Y:    -0.0002      Z:     1.5096     Total:     1.5331


  Saving occupied orbitals to File 180.

*** tstop() called on cx1-3-15-2.cx1.hpc.ic.ac.uk at Tue Jul  5 16:20:03 2016
Module time:
	user time   =       0.87 seconds =       0.01 minutes
	system time =       0.01 seconds =       0.00 minutes
	total time  =          1 seconds =       0.02 minutes
Total time:
	user time   =       0.87 seconds =       0.01 minutes
	system time =       0.01 seconds =       0.00 minutes
	total time  =          1 seconds =       0.02 minutes


Properties will be evaluated at   0.000000,   0.000000,   0.000000 Bohr

Properties computed using the  density matrix

  Nuclear Dipole Moment: (a.u.)
     X:     1.0866      Y:    -0.0001      Z:     0.8015

  Electronic Dipole Moment: (a.u.)
     X:    -0.9814      Y:     0.0001      Z:    -0.2076

  Dipole Moment: (a.u.)
     X:     0.1052      Y:    -0.0001      Z:     0.5939     Total:     0.6032

  Dipole Moment: (Debye)
     X:     0.2673      Y:    -0.0002      Z:     1.5096     Total:     1.5331

  Quadrupole Moment: (Debye Ang)
    XX:   -13.6843     YY:   -12.4929     ZZ:   -15.2064
    XY:     0.0002     XZ:    -2.1108     YZ:     0.0002

  Traceless Quadrupole Moment: (Debye Ang)
    XX:     0.1102     YY:     1.3016     ZZ:    -1.4119
    XY:     0.0002     XZ:    -2.1108     YZ:     0.0002

  Mulliken Charges: (a.u.)
   Center  Symbol    Alpha    Beta     Spin     Total
       1     H     0.33384  0.33384  0.00000  0.33233
       2     N     3.91667  3.91667  0.00000 -0.83333
       3     C     3.14785  3.14785  0.00000 -0.29570
       4     H     0.33384  0.33384  0.00000  0.33233
       5     H     0.41714  0.41714  0.00000  0.16573
       6     H     0.41714  0.41714  0.00000  0.16572
       7     H     0.43353  0.43353  0.00000  0.13293

   Total alpha =  9.00000, Total beta =  9.00000, Total charge = -0.00000



Properties will be evaluated at   0.000000,   0.000000,   0.000000 Bohr

Properties computed using the  density matrix


 Electrostatic potential computed on the grid and written to grid_esp.dat

*** PSI4 exiting successfully. Buy a developer a beer!
