    -----------------------------------------------------------------------
          Psi4: An Open-Source Ab Initio Electronic Structure Package
                              Psi4 (no tag) Driver

                          Git: Rev {detached?}  

    J. M. Turney, A. C. Simmonett, R. M. Parrish, E. G. Hohenstein,
    F. A. Evangelista, J. T. Fermann, B. J. Mintz, L. A. Burns, J. J. Wilke,
    M. L. Abrams, N. J. Russ, M. L. Leininger, C. L. Janssen, E. T. Seidl,
    W. D. Allen, H. F. Schaefer, R. A. King, E. F. Valeev, C. D. Sherrill,
    and T. D. Crawford, WIREs Comput. Mol. Sci. 2, 556-565 (2012)
    (doi: 10.1002/wcms.93)

                         Additional Contributions by
    A. E. DePrince, M. Saitow, U. Bozkaya, A. Yu. Sokolov
    -----------------------------------------------------------------------


    Psi4 started on: Tue Jul  5 16:30:58 2016

    Process ID:  23342
    PSI4DATADIR: /export131/home/mjharvey/miniconda3/share
    Memory level set to 256.000 MB

  ==> Input File <==

--------------------------------------------------------------------------
set {
	reference rhf
	basis 6-31G*
}


set_num_threads( 1 )
memory 2 gb

molecule MOL {
0 1

H	 -2.798360	 -0.862255	 -0.071053
N	 -1.863561	 -0.715187	 0.256814
C	 -1.344686	 0.554728	 -0.219830
H	 -1.300452	 -1.461917	 -0.101532
C	 0.081427	 0.741154	 0.254071
H	 -1.362155	 0.656231	 -1.305829
H	 -1.952773	 1.354456	 0.191809
O	 0.052470	 1.068173	 1.613963
H	 0.651797	 -0.174817	 0.101384
H	 0.554893	 1.537773	 -0.315546
C	 1.299654	 1.352272	 2.162955
H	 1.152132	 1.587210	 3.208296
H	 1.971949	 0.499579	 2.086040
H	 1.765379	 2.204284	 1.672053

	symmetry c1
}
set optking {
	frozen_dihedral = ("
		6 3 2 4,
		5 8 11 13,
		11 8 5 3
	")
}

ee = energy('scf')
oeprop('DIPOLE', 'QUADRUPOLE', 'MULLIKEN_CHARGES')
f=open( 'psi4out.xyz', 'w' )
f.write( "14  " )
f.write( str(ee) + "\n" )
f.write( MOL.save_string_xyz() )
f.close()
--------------------------------------------------------------------------

  Memory set to   2.000 GiB by Python script.

*** tstart() called on cx1-3-6-4.cx1.hpc.ic.ac.uk
*** at Tue Jul  5 16:30:58 2016


         ---------------------------------------------------------
                                   SCF
            by Justin Turney, Rob Parrish, and Andy Simmonett
                              RHF Reference
                        1 Threads,   2000 MiB Core
         ---------------------------------------------------------

  ==> Geometry <==

    Molecular point group: c1
    Full point group: C1

    Geometry (in Angstrom), charge = 0, multiplicity = 1:

       Center              X                  Y                   Z               Mass       
    ------------   -----------------  -----------------  -----------------  -----------------
           H         -2.450044533529    -1.451460220521    -0.887456668393     1.007825032070
           N         -1.515245533529    -1.304392220521    -0.559589668393    14.003074004780
           C         -0.996370533529    -0.034477220521    -1.036233668393    12.000000000000
           H         -0.952136533529    -2.051122220521    -0.917935668393     1.007825032070
           C          0.429742466471     0.151948779479    -0.562332668393    12.000000000000
           H         -1.013839533529     0.067025779479    -2.122232668393     1.007825032070
           H         -1.604457533529     0.765250779479    -0.624594668393     1.007825032070
           O          0.400785466471     0.478967779479     0.797559331607    15.994914619560
           H          1.000112466471    -0.764022220521    -0.715019668393     1.007825032070
           H          0.903208466471     0.948567779479    -1.131949668393     1.007825032070
           C          1.647969466471     0.763066779479     1.346551331607    12.000000000000
           H          1.500447466471     0.998004779479     2.391892331607     1.007825032070
           H          2.320264466471    -0.089626220521     1.269636331607     1.007825032070
           H          2.113694466471     1.615078779479     0.855649331607     1.007825032070

  Running in c1 symmetry.

  Rotational constants: A =      0.47139  B =      0.08514  C =      0.07985 [cm^-1]
  Rotational constants: A =  14131.93363  B =   2552.50670  C =   2393.85074 [MHz]
  Nuclear repulsion =  193.594722023951988

  Charge       = 0
  Multiplicity = 1
  Electrons    = 42
  Nalpha       = 21
  Nbeta        = 21

  ==> Algorithm <==

  SCF Algorithm Type is DF.
  DIIS enabled.
  MOM disabled.
  Fractional occupation disabled.
  Guess Type is CORE.
  Energy threshold   = 1.00e-06
  Density threshold  = 1.00e-06
  Integral threshold = 0.00e+00

  ==> Primary Basis <==

  Basis Set: 6-31G*
    Number of shells: 48
    Number of basis function: 93
    Number of Cartesian functions: 93
    Spherical Harmonics?: false
    Max angular momentum: 2

  ==> Pre-Iterations <==

   -------------------------------------------------------
    Irrep   Nso     Nmo     Nalpha   Nbeta   Ndocc  Nsocc
   -------------------------------------------------------
     A         93      93       0       0       0       0
   -------------------------------------------------------
    Total      93      93      21      21      21       0
   -------------------------------------------------------

 OEINTS: Overlap, kinetic, potential, dipole, and quadrupole integrals
         stored in file 35.

  ==> Integral Setup <==

  ==> DFJK: Density-Fitted J/K Matrices <==

    J tasked:                  Yes
    K tasked:                  Yes
    wK tasked:                  No
    OpenMP threads:              1
    Integrals threads:           1
    Memory (MB):              1430
    Algorithm:                Core
    Integral Cache:           NONE
    Schwarz Cutoff:          1E-12
    Fitting Condition:       1E-12

   => Auxiliary Basis Set <=

  Basis Set: 
    Number of shells: 201
    Number of basis function: 630
    Number of Cartesian functions: 630
    Spherical Harmonics?: false
    Max angular momentum: 3

  Minimum eigenvalue in the overlap matrix is 4.4950994223E-03.
  Using Symmetric Orthogonalization.
  SCF Guess: Core (One-Electron) Hamiltonian.

  ==> Iterations <==

                           Total Energy        Delta E     RMS |[F,P]|

   @DF-RHF iter   1:  -201.61093856835703   -2.01611e+02   7.97079e-02 
   @DF-RHF iter   2:  -154.95527155224971    4.66557e+01   6.64976e-02 DIIS
   @DF-RHF iter   3:  -210.47692701424205   -5.55217e+01   6.03255e-02 DIIS
   @DF-RHF iter   4:  -238.23602886787972   -2.77591e+01   4.56451e-02 DIIS
   @DF-RHF iter   5:  -247.61944234318275   -9.38341e+00   1.08173e-02 DIIS
   @DF-RHF iter   6:  -247.99934445426317   -3.79902e-01   5.00685e-03 DIIS
   @DF-RHF iter   7:  -248.10781787634426   -1.08473e-01   1.42038e-03 DIIS
   @DF-RHF iter   8:  -248.11787986424218   -1.00620e-02   3.03429e-04 DIIS
   @DF-RHF iter   9:  -248.11850263156668   -6.22767e-04   1.42168e-04 DIIS
   @DF-RHF iter  10:  -248.11863652796569   -1.33896e-04   5.52699e-05 DIIS
   @DF-RHF iter  11:  -248.11865859479497   -2.20668e-05   1.23098e-05 DIIS
   @DF-RHF iter  12:  -248.11865961549029   -1.02070e-06   2.57089e-06 DIIS
   @DF-RHF iter  13:  -248.11865966828032   -5.27900e-08   8.07159e-07 DIIS

  ==> Post-Iterations <==

    Orbital Energies (a.u.)
    -----------------------

    Doubly Occupied:                                                      

       1A    -20.549397     2A    -15.532098     3A    -11.267627  
       4A    -11.261078     5A    -11.241644     6A     -1.373988  
       7A     -1.177703     8A     -0.998452     9A     -0.901812  
      10A     -0.820190    11A     -0.682998    12A     -0.664948  
      13A     -0.647820    14A     -0.614131    15A     -0.593528  
      16A     -0.555137    17A     -0.518439    18A     -0.501238  
      19A     -0.464142    20A     -0.414974    21A     -0.380009  

    Virtual:                                                              

      22A      0.228442    23A      0.250743    24A      0.285492  
      25A      0.293131    26A      0.312639    27A      0.323954  
      28A      0.330563    29A      0.341511    30A      0.351019  
      31A      0.366952    32A      0.423551    33A      0.442370  
      34A      0.469772    35A      0.725320    36A      0.768502  
      37A      0.777633    38A      0.797129    39A      0.805015  
      40A      0.849702    41A      0.877776    42A      0.936102  
      43A      0.994749    44A      1.008309    45A      1.063698  
      46A      1.103303    47A      1.114266    48A      1.152882  
      49A      1.156367    50A      1.163519    51A      1.191464  
      52A      1.208105    53A      1.226397    54A      1.248495  
      55A      1.258263    56A      1.286059    57A      1.304098  
      58A      1.390751    59A      1.447201    60A      1.556838  
      61A      1.667578    62A      1.701481    63A      1.769863  
      64A      1.776751    65A      1.784200    66A      1.967035  
      67A      2.034202    68A      2.056540    69A      2.221973  
      70A      2.231751    71A      2.280432    72A      2.372507  
      73A      2.395208    74A      2.449416    75A      2.482144  
      76A      2.504491    77A      2.526323    78A      2.581779  
      79A      2.642548    80A      2.704893    81A      2.727757  
      82A      2.853015    83A      2.875726    84A      2.908726  
      85A      3.012003    86A      3.102449    87A      3.202528  
      88A      3.344721    89A      4.214528    90A      4.373009  
      91A      4.658839    92A      4.703192    93A      4.896137  

    Final Occupation by Irrep:
              A 
    DOCC [    21 ]

  Energy converged.

  @DF-RHF Final Energy:  -248.11865966828032

   => Energetics <=

    Nuclear Repulsion Energy =            193.5947220239519879
    One-Electron Energy =                -721.1039007763711197
    Two-Electron Energy =                 279.3905190841393278
    DFT Exchange-Correlation Energy =       0.0000000000000000
    Empirical Dispersion Energy =           0.0000000000000000
    PCM Polarization Energy =               0.0000000000000000
    EFP Energy =                            0.0000000000000000
    Total Energy =                       -248.1186596682797472

    Alert: EFP and PCM quantities not currently incorporated into SCF psivars.

Properties will be evaluated at   0.000000,   0.000000,   0.000000 Bohr
  ==> Properties <==


Properties computed using the SCF density matrix

  Nuclear Dipole Moment: (a.u.)
     X:     1.7099      Y:     0.0414      Z:    -1.7589

  Electronic Dipole Moment: (a.u.)
     X:    -1.3031      Y:    -0.0741      Z:     0.9092

  Dipole Moment: (a.u.)
     X:     0.4069      Y:    -0.0327      Z:    -0.8497     Total:     0.9426

  Dipole Moment: (Debye)
     X:     1.0342      Y:    -0.0830      Z:    -2.1596     Total:     2.3959


  Saving occupied orbitals to File 180.

*** tstop() called on cx1-3-6-4.cx1.hpc.ic.ac.uk at Tue Jul  5 16:31:04 2016
Module time:
	user time   =       4.95 seconds =       0.08 minutes
	system time =       0.05 seconds =       0.00 minutes
	total time  =          6 seconds =       0.10 minutes
Total time:
	user time   =       4.95 seconds =       0.08 minutes
	system time =       0.05 seconds =       0.00 minutes
	total time  =          6 seconds =       0.10 minutes


Properties will be evaluated at   0.000000,   0.000000,   0.000000 Bohr

Properties computed using the  density matrix

  Nuclear Dipole Moment: (a.u.)
     X:     1.7099      Y:     0.0414      Z:    -1.7589

  Electronic Dipole Moment: (a.u.)
     X:    -1.3031      Y:    -0.0741      Z:     0.9092

  Dipole Moment: (a.u.)
     X:     0.4069      Y:    -0.0327      Z:    -0.8497     Total:     0.9426

  Dipole Moment: (Debye)
     X:     1.0342      Y:    -0.0830      Z:    -2.1596     Total:     2.3959

  Quadrupole Moment: (Debye Ang)
    XX:   -28.6286     YY:   -30.8983     ZZ:   -30.9472
    XY:     0.8965     XZ:     4.0685     YZ:     2.7269

  Traceless Quadrupole Moment: (Debye Ang)
    XX:     1.5294     YY:    -0.7402     ZZ:    -0.7892
    XY:     0.8965     XZ:     4.0685     YZ:     2.7269

  Mulliken Charges: (a.u.)
   Center  Symbol    Alpha    Beta     Spin     Total
       1     H     0.33200  0.33200  0.00000  0.33600
       2     N     3.91437  3.91437  0.00000 -0.82873
       3     C     3.07067  3.07067  0.00000 -0.14135
       4     H     0.33682  0.33682  0.00000  0.32635
       5     C     2.98659  2.98659  0.00000  0.02682
       6     H     0.43445  0.43445  0.00000  0.13111
       7     H     0.40813  0.40813  0.00000  0.18373
       8     O     4.29872  4.29872  0.00000 -0.59745
       9     H     0.43418  0.43418  0.00000  0.13163
      10     H     0.43079  0.43079  0.00000  0.13843
      11     C     3.07839  3.07839  0.00000 -0.15678
      12     H     0.41144  0.41144  0.00000  0.17712
      13     H     0.43117  0.43117  0.00000  0.13766
      14     H     0.43228  0.43228  0.00000  0.13544

   Total alpha = 21.00000, Total beta = 21.00000, Total charge =  0.00000


*** PSI4 exiting successfully. Buy a developer a beer!
