    -----------------------------------------------------------------------
          Psi4: An Open-Source Ab Initio Electronic Structure Package
                              Psi4 (no tag) Driver

                          Git: Rev {detached?}  

    J. M. Turney, A. C. Simmonett, R. M. Parrish, E. G. Hohenstein,
    F. A. Evangelista, J. T. Fermann, B. J. Mintz, L. A. Burns, J. J. Wilke,
    M. L. Abrams, N. J. Russ, M. L. Leininger, C. L. Janssen, E. T. Seidl,
    W. D. Allen, H. F. Schaefer, R. A. King, E. F. Valeev, C. D. Sherrill,
    and T. D. Crawford, WIREs Comput. Mol. Sci. 2, 556-565 (2012)
    (doi: 10.1002/wcms.93)

                         Additional Contributions by
    A. E. DePrince, M. Saitow, U. Bozkaya, A. Yu. Sokolov
    -----------------------------------------------------------------------


    Psi4 started on: Tue Jul  5 16:42:03 2016

    Process ID:  17744
    PSI4DATADIR: /export131/home/mjharvey/miniconda3/share
    Memory level set to 256.000 MB

  ==> Input File <==

--------------------------------------------------------------------------
set {
	reference rhf
	basis 6-31G*
}


set_num_threads( 1 )
memory 2 gb

molecule MOL {
0 1

H	 -3.571158	 0.540474	 0.139285
O	 -3.106200	 -0.271124	 -0.011510
C	 -1.775819	 -0.076055	 -0.001477
C	 -1.178726	 0.923520	 0.760975
C	 -1.001159	 -0.917912	 -0.789667
H	 -1.786401	 1.571728	 1.369142
C	 0.191438	 1.077259	 0.732112
H	 -1.485030	 -1.681305	 -1.368780
C	 0.367949	 -0.751654	 -0.808004
H	 0.665440	 1.844245	 1.315340
C	 0.981051	 0.242400	 -0.051970
H	 0.968720	 -1.403777	 -1.418636
C	 2.447544	 0.408311	 -0.081729
O	 3.207860	 -0.359559	 -0.584774
H	 2.819586	 1.315968	 0.405006

	symmetry c1
}
set optking {
	frozen_dihedral = ("
		7 11 13 14
	")
}

ee = energy('scf')
oeprop('DIPOLE', 'QUADRUPOLE', 'MULLIKEN_CHARGES')
f=open( 'psi4out.xyz', 'w' )
f.write( "15  " )
f.write( str(ee) + "\n" )
f.write( MOL.save_string_xyz() )
f.close()
--------------------------------------------------------------------------

  Memory set to   2.000 GiB by Python script.

*** tstart() called on cx1-1-3-3.cx1.hpc.ic.ac.uk
*** at Tue Jul  5 16:42:04 2016


         ---------------------------------------------------------
                                   SCF
            by Justin Turney, Rob Parrish, and Andy Simmonett
                              RHF Reference
                        1 Threads,   2000 MiB Core
         ---------------------------------------------------------

  ==> Geometry <==

    Molecular point group: c1
    Full point group: C1

    Geometry (in Angstrom), charge = 0, multiplicity = 1:

       Center              X                  Y                   Z               Mass       
    ------------   -----------------  -----------------  -----------------  -----------------
           H         -3.567928180640     0.515996492254     0.237368717811     1.007825032070
           O         -3.102970180640    -0.295601507746     0.086573717811    15.994914619560
           C         -1.772589180640    -0.100532507746     0.096606717811    12.000000000000
           C         -1.175496180640     0.899042492254     0.859058717811    12.000000000000
           C         -0.997929180640    -0.942389507746    -0.691583282189    12.000000000000
           H         -1.783171180640     1.547250492254     1.467225717811     1.007825032070
           C          0.194667819360     1.052781492254     0.830195717811    12.000000000000
           H         -1.481800180640    -1.705782507746    -1.270696282189     1.007825032070
           C          0.371178819360    -0.776131507746    -0.709920282189    12.000000000000
           H          0.668669819360     1.819767492254     1.413423717811     1.007825032070
           C          0.984280819360     0.217922492254     0.046113717811    12.000000000000
           H          0.971949819360    -1.428254507746    -1.320552282189     1.007825032070
           C          2.450773819360     0.383833492254     0.016354717811    12.000000000000
           O          3.211089819360    -0.384036507746    -0.486690282189    15.994914619560
           H          2.822815819360     1.291490492254     0.503089717811     1.007825032070

  Running in c1 symmetry.

  Rotational constants: A =      0.17247  B =      0.03358  C =      0.02815 [cm^-1]
  Rotational constants: A =   5170.40127  B =   1006.78956  C =    843.89813 [MHz]
  Nuclear repulsion =  401.327594033877972

  Charge       = 0
  Multiplicity = 1
  Electrons    = 64
  Nalpha       = 32
  Nbeta        = 32

  ==> Algorithm <==

  SCF Algorithm Type is DF.
  DIIS enabled.
  MOM disabled.
  Fractional occupation disabled.
  Guess Type is CORE.
  Energy threshold   = 1.00e-06
  Density threshold  = 1.00e-06
  Integral threshold = 0.00e+00

  ==> Primary Basis <==

  Basis Set: 6-31G*
    Number of shells: 66
    Number of basis function: 147
    Number of Cartesian functions: 147
    Spherical Harmonics?: false
    Max angular momentum: 2

  ==> Pre-Iterations <==

   -------------------------------------------------------
    Irrep   Nso     Nmo     Nalpha   Nbeta   Ndocc  Nsocc
   -------------------------------------------------------
     A        147     147       0       0       0       0
   -------------------------------------------------------
    Total     147     147      32      32      32       0
   -------------------------------------------------------

 OEINTS: Overlap, kinetic, potential, dipole, and quadrupole integrals
         stored in file 35.

  ==> Integral Setup <==

  ==> DFJK: Density-Fitted J/K Matrices <==

    J tasked:                  Yes
    K tasked:                  Yes
    wK tasked:                  No
    OpenMP threads:              1
    Integrals threads:           1
    Memory (MB):              1430
    Algorithm:                Core
    Integral Cache:           NONE
    Schwarz Cutoff:          1E-12
    Fitting Condition:       1E-12

   => Auxiliary Basis Set <=

  Basis Set: 
    Number of shells: 270
    Number of basis function: 879
    Number of Cartesian functions: 879
    Spherical Harmonics?: false
    Max angular momentum: 3

  Minimum eigenvalue in the overlap matrix is 4.0454839548E-04.
  Using Symmetric Orthogonalization.
  SCF Guess: Core (One-Electron) Hamiltonian.

  ==> Iterations <==

                           Total Energy        Delta E     RMS |[F,P]|

   @DF-RHF iter   1:  -343.06654870109912   -3.43067e+02   6.06959e-02 
   @DF-RHF iter   2:  -199.34571899023410    1.43721e+02   8.41844e-02 DIIS
   @DF-RHF iter   3:  -329.25748462116428   -1.29912e+02   4.75406e-02 DIIS
   @DF-RHF iter   4:  -304.80690935323082    2.44506e+01   6.02350e-02 DIIS
   @DF-RHF iter   5:  -415.77985256650391   -1.10973e+02   1.38330e-02 DIIS
   @DF-RHF iter   6:  -417.94747597296009   -2.16762e+00   5.23706e-03 DIIS
   @DF-RHF iter   7:  -418.23878877782283   -2.91313e-01   1.88295e-03 DIIS
   @DF-RHF iter   8:  -418.28050699118592   -4.17182e-02   5.46052e-04 DIIS
   @DF-RHF iter   9:  -418.28602194945461   -5.51496e-03   2.67113e-04 DIIS
   @DF-RHF iter  10:  -418.28726637188709   -1.24442e-03   9.81787e-05 DIIS
   @DF-RHF iter  11:  -418.28749105567260   -2.24684e-04   3.13958e-05 DIIS
   @DF-RHF iter  12:  -418.28753313237291   -4.20767e-05   1.62836e-05 DIIS
   @DF-RHF iter  13:  -418.28754248557902   -9.35321e-06   8.17829e-06 DIIS
   @DF-RHF iter  14:  -418.28754612683611   -3.64126e-06   2.80093e-06 DIIS
   @DF-RHF iter  15:  -418.28754647960614   -3.52770e-07   9.41855e-07 DIIS

  ==> Post-Iterations <==

    Orbital Energies (a.u.)
    -----------------------

    Doubly Occupied:                                                      

       1A    -20.606955     2A    -20.556968     3A    -11.328640  
       4A    -11.321125     5A    -11.262386     6A    -11.253491  
       7A    -11.245300     8A    -11.239993     9A    -11.237467  
      10A     -1.429334    11A     -1.397789    12A     -1.170315  
      13A     -1.042613    14A     -1.036414    15A     -0.892734  
      16A     -0.857477    17A     -0.802253    18A     -0.755997  
      19A     -0.697000    20A     -0.684572    21A     -0.640442  
      22A     -0.625047    23A     -0.617656    24A     -0.607634  
      25A     -0.568518    26A     -0.554940    27A     -0.549432  
      28A     -0.503758    29A     -0.483767    30A     -0.419239  
      31A     -0.356581    32A     -0.329302  

    Virtual:                                                              

      33A      0.094853    34A      0.128098    35A      0.209842  
      36A      0.230623    37A      0.240518    38A      0.264153  
      39A      0.302711    40A      0.322850    41A      0.332540  
      42A      0.376645    43A      0.413234    44A      0.428510  
      45A      0.453869    46A      0.489059    47A      0.534895  
      48A      0.557481    49A      0.574174    50A      0.703048  
      51A      0.716580    52A      0.722045    53A      0.749565  
      54A      0.751711    55A      0.774759    56A      0.779004  
      57A      0.806907    58A      0.809883    59A      0.825117  
      60A      0.857915    61A      0.867995    62A      0.890509  
      63A      0.892834    64A      0.934826    65A      0.991688  
      66A      1.016425    67A      1.020669    68A      1.057014  
      69A      1.081226    70A      1.092033    71A      1.107972  
      72A      1.109033    73A      1.134950    74A      1.153071  
      75A      1.173731    76A      1.201188    77A      1.213105  
      78A      1.228882    79A      1.251286    80A      1.287041  
      81A      1.306321    82A      1.337107    83A      1.359142  
      84A      1.412327    85A      1.450659    86A      1.454368  
      87A      1.472372    88A      1.502146    89A      1.540813  
      90A      1.626931    91A      1.643565    92A      1.660754  
      93A      1.716138    94A      1.717075    95A      1.738660  
      96A      1.771288    97A      1.831862    98A      1.835609  
      99A      1.897667   100A      2.029859   101A      2.044394  
     102A      2.054375   103A      2.077347   104A      2.092545  
     105A      2.153036   106A      2.170672   107A      2.225520  
     108A      2.243473   109A      2.266535   110A      2.304250  
     111A      2.348982   112A      2.370681   113A      2.399154  
     114A      2.412633   115A      2.448203   116A      2.469915  
     117A      2.554500   118A      2.596106   119A      2.630980  
     120A      2.640736   121A      2.664394   122A      2.739892  
     123A      2.770110   124A      2.838993   125A      2.877003  
     126A      2.931525   127A      2.960164   128A      3.004841  
     129A      3.027900   130A      3.050782   131A      3.100845  
     132A      3.180920   133A      3.251075   134A      3.302900  
     135A      3.358525   136A      3.406345   137A      3.558845  
     138A      3.832680   139A      4.323471   140A      4.343954  
     141A      4.514452   142A      4.533781   143A      4.584847  
     144A      4.680041   145A      4.742177   146A      4.894484  
     147A      5.177453  

    Final Occupation by Irrep:
              A 
    DOCC [    32 ]

  Energy converged.

  @DF-RHF Final Energy:  -418.28754647960614

   => Energetics <=

    Nuclear Repulsion Energy =            401.3275940338779719
    One-Electron Energy =               -1365.0803036927095491
    Two-Electron Energy =                 545.4651631792244189
    DFT Exchange-Correlation Energy =       0.0000000000000000
    Empirical Dispersion Energy =           0.0000000000000000
    PCM Polarization Energy =               0.0000000000000000
    EFP Energy =                            0.0000000000000000
    Total Energy =                       -418.2875464796071583

    Alert: EFP and PCM quantities not currently incorporated into SCF psivars.

Properties will be evaluated at   0.000000,   0.000000,   0.000000 Bohr
  ==> Properties <==


Properties computed using the SCF density matrix

  Nuclear Dipole Moment: (a.u.)
     X:    -2.2208      Y:     1.9096      Z:     0.9635

  Electronic Dipole Moment: (a.u.)
     X:     0.9699      Y:    -0.7659      Z:    -0.4843

  Dipole Moment: (a.u.)
     X:    -1.2509      Y:     1.1437      Z:     0.4792     Total:     1.7614

  Dipole Moment: (Debye)
     X:    -3.1795      Y:     2.9071      Z:     1.2180     Total:     4.4771


  Saving occupied orbitals to File 180.

*** tstop() called on cx1-1-3-3.cx1.hpc.ic.ac.uk at Tue Jul  5 16:42:25 2016
Module time:
	user time   =      20.79 seconds =       0.35 minutes
	system time =       0.09 seconds =       0.00 minutes
	total time  =         21 seconds =       0.35 minutes
Total time:
	user time   =      20.79 seconds =       0.35 minutes
	system time =       0.09 seconds =       0.00 minutes
	total time  =         21 seconds =       0.35 minutes


Properties will be evaluated at   0.000000,   0.000000,   0.000000 Bohr

Properties computed using the  density matrix

  Nuclear Dipole Moment: (a.u.)
     X:    -2.2208      Y:     1.9096      Z:     0.9635

  Electronic Dipole Moment: (a.u.)
     X:     0.9699      Y:    -0.7659      Z:    -0.4843

  Dipole Moment: (a.u.)
     X:    -1.2509      Y:     1.1437      Z:     0.4792     Total:     1.7614

  Dipole Moment: (Debye)
     X:    -3.1795      Y:     2.9071      Z:     1.2180     Total:     4.4771

  Quadrupole Moment: (Debye Ang)
    XX:   -58.1537     YY:   -48.2994     ZZ:   -50.9062
    XY:    -0.8870     XZ:     2.2763     YZ:     4.2444

  Traceless Quadrupole Moment: (Debye Ang)
    XX:    -5.7006     YY:     4.1537     ZZ:     1.5469
    XY:    -0.8870     XZ:     2.2763     YZ:     4.2444

  Mulliken Charges: (a.u.)
   Center  Symbol    Alpha    Beta     Spin     Total
       1     H     0.26902  0.26902  0.00000  0.46197
       2     O     4.37480  4.37480  0.00000 -0.74959
       3     C     2.79042  2.79042  0.00000  0.41916
       4     C     3.14363  3.14363  0.00000 -0.28725
       5     C     3.12566  3.12566  0.00000 -0.25133
       6     H     0.39721  0.39721  0.00000  0.20558
       7     C     3.09185  3.09185  0.00000 -0.18369
       8     H     0.38559  0.38559  0.00000  0.22881
       9     C     3.08102  3.08102  0.00000 -0.16203
      10     H     0.38985  0.38985  0.00000  0.22030
      11     C     3.06567  3.06567  0.00000 -0.13134
      12     H     0.37575  0.37575  0.00000  0.24849
      13     C     2.83177  2.83177  0.00000  0.33646
      14     O     4.25216  4.25216  0.00000 -0.50431
      15     H     0.42561  0.42561  0.00000  0.14878

   Total alpha = 32.00000, Total beta = 32.00000, Total charge = -0.00000


*** PSI4 exiting successfully. Buy a developer a beer!
