    -----------------------------------------------------------------------
          Psi4: An Open-Source Ab Initio Electronic Structure Package
                              Psi4 (no tag) Driver

                          Git: Rev {detached?}  

    J. M. Turney, A. C. Simmonett, R. M. Parrish, E. G. Hohenstein,
    F. A. Evangelista, J. T. Fermann, B. J. Mintz, L. A. Burns, J. J. Wilke,
    M. L. Abrams, N. J. Russ, M. L. Leininger, C. L. Janssen, E. T. Seidl,
    W. D. Allen, H. F. Schaefer, R. A. King, E. F. Valeev, C. D. Sherrill,
    and T. D. Crawford, WIREs Comput. Mol. Sci. 2, 556-565 (2012)
    (doi: 10.1002/wcms.93)

                         Additional Contributions by
    A. E. DePrince, M. Saitow, U. Bozkaya, A. Yu. Sokolov
    -----------------------------------------------------------------------


    Psi4 started on: Tue Jul  5 16:49:35 2016

    Process ID:  16865
    PSI4DATADIR: /export131/home/mjharvey/miniconda3/share
    Memory level set to 256.000 MB

  ==> Input File <==

--------------------------------------------------------------------------
set {
	reference rhf
	basis 6-31G*
}


set_num_threads( 1 )
memory 2 gb

molecule MOL {
0 1

H	 -2.244713	 0.404593	 2.278350
C	 -1.794302	 0.187500	 1.327889
C	 -2.569368	 0.048063	 0.189128
C	 -0.426998	 0.043812	 1.228981
H	 -3.637535	 0.156575	 0.245568
C	 -1.976089	 -0.231370	 -1.027698
H	 0.199946	 0.145662	 2.089995
C	 0.154804	 -0.237046	 -0.000077
H	 -2.594809	 -0.335636	 -1.899713
C	 -0.598388	 -0.384269	 -1.169716
N	 1.611208	 -0.370857	 -0.000034
C	 -0.057030	 -0.688856	 -2.549241
O	 2.274126	 0.622059	 -0.008063
O	 2.068510	 -1.474748	 0.007823
H	 0.473237	 -1.630956	 -2.569060
H	 -0.880922	 -0.739215	 -3.249984
H	 0.635000	 0.072488	 -2.881767

	symmetry c1
}
ee = energy('scf')
oeprop('DIPOLE', 'QUADRUPOLE', 'MULLIKEN_CHARGES')
f=open( 'psi4out.xyz', 'w' )
f.write( "17  " )
f.write( str(ee) + "\n" )
f.write( MOL.save_string_xyz() )
f.close()
--------------------------------------------------------------------------

  Memory set to   2.000 GiB by Python script.

*** tstart() called on cx1-3-4-1.cx1.hpc.ic.ac.uk
*** at Tue Jul  5 16:49:35 2016


         ---------------------------------------------------------
                                   SCF
            by Justin Turney, Rob Parrish, and Andy Simmonett
                              RHF Reference
                        1 Threads,   2000 MiB Core
         ---------------------------------------------------------

  ==> Geometry <==

    Molecular point group: c1
    Full point group: C1

    Geometry (in Angstrom), charge = 0, multiplicity = 1:

       Center              X                  Y                   Z               Mass       
    ------------   -----------------  -----------------  -----------------  -----------------
           H         -2.220639035057     0.666687053747     2.497591797037     1.007825032070
           C         -1.770228035057     0.449594053747     1.547130797037    12.000000000000
           C         -2.545294035057     0.310157053747     0.408369797037    12.000000000000
           C         -0.402924035057     0.305906053747     1.448222797037    12.000000000000
           H         -3.613461035057     0.418669053747     0.464809797037     1.007825032070
           C         -1.952015035057     0.030724053747    -0.808456202963    12.000000000000
           H          0.224019964943     0.407756053747     2.309236797037     1.007825032070
           C          0.178877964943     0.025048053747     0.219164797037    12.000000000000
           H         -2.570735035057    -0.073541946253    -1.680471202963     1.007825032070
           C         -0.574314035057    -0.122174946253    -0.950474202963    12.000000000000
           N          1.635281964943    -0.108762946253     0.219207797037    14.003074004780
           C         -0.032956035057    -0.426761946253    -2.329999202963    12.000000000000
           O          2.298199964943     0.884153053747     0.211178797037    15.994914619560
           O          2.092583964943    -1.212653946253     0.227064797037    15.994914619560
           H          0.497310964943    -1.368861946253    -2.349818202963     1.007825032070
           H         -0.856848035057    -0.477120946253    -3.030742202963     1.007825032070
           H          0.659073964943     0.334582053747    -2.662525202963     1.007825032070

  Running in c1 symmetry.

  Rotational constants: A =      0.07606  B =      0.03965  C =      0.02930 [cm^-1]
  Rotational constants: A =   2280.16434  B =   1188.60614  C =    878.30268 [MHz]
  Nuclear repulsion =  506.804404296783900

  Charge       = 0
  Multiplicity = 1
  Electrons    = 72
  Nalpha       = 36
  Nbeta        = 36

  ==> Algorithm <==

  SCF Algorithm Type is DF.
  DIIS enabled.
  MOM disabled.
  Fractional occupation disabled.
  Guess Type is CORE.
  Energy threshold   = 1.00e-06
  Density threshold  = 1.00e-06
  Integral threshold = 0.00e+00

  ==> Primary Basis <==

  Basis Set: 6-31G*
    Number of shells: 74
    Number of basis function: 164
    Number of Cartesian functions: 164
    Spherical Harmonics?: false
    Max angular momentum: 2

  ==> Pre-Iterations <==

   -------------------------------------------------------
    Irrep   Nso     Nmo     Nalpha   Nbeta   Ndocc  Nsocc
   -------------------------------------------------------
     A        164     164       0       0       0       0
   -------------------------------------------------------
    Total     164     164      36      36      36       0
   -------------------------------------------------------

 OEINTS: Overlap, kinetic, potential, dipole, and quadrupole integrals
         stored in file 35.

  ==> Integral Setup <==

  ==> DFJK: Density-Fitted J/K Matrices <==

    J tasked:                  Yes
    K tasked:                  Yes
    wK tasked:                  No
    OpenMP threads:              1
    Integrals threads:           1
    Memory (MB):              1430
    Algorithm:                Core
    Integral Cache:           NONE
    Schwarz Cutoff:          1E-12
    Fitting Condition:       1E-12

   => Auxiliary Basis Set <=

  Basis Set: 
    Number of shells: 303
    Number of basis function: 985
    Number of Cartesian functions: 985
    Spherical Harmonics?: false
    Max angular momentum: 3

  Minimum eigenvalue in the overlap matrix is 3.7439277454E-04.
  Using Symmetric Orthogonalization.
  SCF Guess: Core (One-Electron) Hamiltonian.

  ==> Iterations <==

                           Total Energy        Delta E     RMS |[F,P]|

   @DF-RHF iter   1:  -361.58193990222162   -3.61582e+02   6.99873e-02 
   @DF-RHF iter   2:  -299.17432598461744    6.24076e+01   5.58112e-02 DIIS
   @DF-RHF iter   3:  -325.71708709965321   -2.65428e+01   6.68787e-02 DIIS
   @DF-RHF iter   4:  -454.64934447119560   -1.28932e+02   2.99633e-02 DIIS
   @DF-RHF iter   5:  -456.94483574222306   -2.29549e+00   2.46877e-02 DIIS
   @DF-RHF iter   6:  -466.02227931840105   -9.07744e+00   1.80074e-02 DIIS
   @DF-RHF iter   7:  -472.69673747610238   -6.67446e+00   5.69023e-03 DIIS
   @DF-RHF iter   8:  -473.15235293545174   -4.55615e-01   1.40946e-03 DIIS
   @DF-RHF iter   9:  -473.19317080434348   -4.08179e-02   4.95452e-04 DIIS
   @DF-RHF iter  10:  -473.19773217424756   -4.56137e-03   1.77540e-04 DIIS
   @DF-RHF iter  11:  -473.19834798048328   -6.15806e-04   9.57154e-05 DIIS
   @DF-RHF iter  12:  -473.19852850126506   -1.80521e-04   3.88881e-05 DIIS
   @DF-RHF iter  13:  -473.19856518993527   -3.66887e-05   1.60385e-05 DIIS
   @DF-RHF iter  14:  -473.19857361774564   -8.42781e-06   6.15373e-06 DIIS
   @DF-RHF iter  15:  -473.19857581980693   -2.20206e-06   3.03828e-06 DIIS
   @DF-RHF iter  16:  -473.19857650389770   -6.84091e-07   1.10231e-06 DIIS
   @DF-RHF iter  17:  -473.19857656779072   -6.38930e-08   4.21947e-07 DIIS

  ==> Post-Iterations <==

    Orbital Energies (a.u.)
    -----------------------

    Doubly Occupied:                                                      

       1A    -20.604572     2A    -20.603659     3A    -15.853439  
       4A    -11.307437     5A    -11.281136     6A    -11.267984  
       7A    -11.258816     8A    -11.256336     9A    -11.254902  
      10A    -11.241939    11A     -1.634922    12A     -1.414898  
      13A     -1.200562    14A     -1.092792    15A     -1.075255  
      16A     -0.981499    17A     -0.935221    18A     -0.854393  
      19A     -0.819175    20A     -0.772299    21A     -0.731753  
      22A     -0.727761    23A     -0.697163    24A     -0.653749  
      25A     -0.636739    26A     -0.600187    27A     -0.599252  
      28A     -0.570690    29A     -0.543302    30A     -0.528225  
      31A     -0.521456    32A     -0.489816    33A     -0.481336  
      34A     -0.448101    35A     -0.363818    36A     -0.354142  

    Virtual:                                                              

      37A      0.103694    38A      0.121113    39A      0.123922  
      40A      0.220103    41A      0.245504    42A      0.272611  
      43A      0.299216    44A      0.307276    45A      0.310703  
      46A      0.326393    47A      0.358793    48A      0.378144  
      49A      0.392352    50A      0.436240    51A      0.477361  
      52A      0.502323    53A      0.531828    54A      0.561464  
      55A      0.615525    56A      0.655298    57A      0.686410  
      58A      0.696872    59A      0.711297    60A      0.718203  
      61A      0.749206    62A      0.789312    63A      0.800664  
      64A      0.802184    65A      0.815073    66A      0.825686  
      67A      0.832536    68A      0.854772    69A      0.890509  
      70A      0.906287    71A      0.917590    72A      0.925082  
      73A      0.982766    74A      0.994923    75A      1.016960  
      76A      1.047118    77A      1.074257    78A      1.090442  
      79A      1.091380    80A      1.100854    81A      1.116178  
      82A      1.130267    83A      1.145996    84A      1.158595  
      85A      1.165022    86A      1.187405    87A      1.201890  
      88A      1.235566    89A      1.258001    90A      1.270230  
      91A      1.280122    92A      1.300351    93A      1.325263  
      94A      1.332242    95A      1.383630    96A      1.419116  
      97A      1.457936    98A      1.471179    99A      1.488514  
     100A      1.597731   101A      1.607424   102A      1.643881  
     103A      1.666095   104A      1.702625   105A      1.732954  
     106A      1.737087   107A      1.754827   108A      1.788705  
     109A      1.915298   110A      1.939385   111A      2.019872  
     112A      2.036796   113A      2.051050   114A      2.084553  
     115A      2.110659   116A      2.115728   117A      2.134936  
     118A      2.165669   119A      2.189909   120A      2.219175  
     121A      2.248811   122A      2.262354   123A      2.343589  
     124A      2.377142   125A      2.394232   126A      2.404927  
     127A      2.430302   128A      2.433172   129A      2.466497  
     130A      2.480784   131A      2.508011   132A      2.552176  
     133A      2.597974   134A      2.618359   135A      2.642601  
     136A      2.669427   137A      2.720760   138A      2.782718  
     139A      2.806030   140A      2.880904   141A      2.933559  
     142A      2.961163   143A      3.062539   144A      3.081504  
     145A      3.097862   146A      3.121839   147A      3.152200  
     148A      3.203751   149A      3.253910   150A      3.268522  
     151A      3.274754   152A      3.464537   153A      3.507132  
     154A      3.803732   155A      4.238394   156A      4.286372  
     157A      4.346060   158A      4.504829   159A      4.527191  
     160A      4.541077   161A      4.681969   162A      4.785519  
     163A      4.812353   164A      5.142109  

    Final Occupation by Irrep:
              A 
    DOCC [    36 ]

  Energy converged.

  @DF-RHF Final Energy:  -473.19857656779072

   => Energetics <=

    Nuclear Repulsion Energy =            506.8044042967839005
    One-Electron Energy =               -1648.6886021663729025
    Two-Electron Energy =                 668.6856213017983919
    DFT Exchange-Correlation Energy =       0.0000000000000000
    Empirical Dispersion Energy =           0.0000000000000000
    PCM Polarization Energy =               0.0000000000000000
    EFP Energy =                            0.0000000000000000
    Total Energy =                       -473.1985765677907239

    Alert: EFP and PCM quantities not currently incorporated into SCF psivars.

Properties will be evaluated at   0.000000,   0.000000,   0.000000 Bohr
  ==> Properties <==


Properties computed using the SCF density matrix

  Nuclear Dipole Moment: (a.u.)
     X:    -7.3721      Y:    -0.0874      Z:    -4.1721

  Electronic Dipole Moment: (a.u.)
     X:     5.5646      Y:     0.2256      Z:     4.0121

  Dipole Moment: (a.u.)
     X:    -1.8075      Y:     0.1383      Z:    -0.1599     Total:     1.8198

  Dipole Moment: (Debye)
     X:    -4.5942      Y:     0.3515      Z:    -0.4065     Total:     4.6255


  Saving occupied orbitals to File 180.

*** tstop() called on cx1-3-4-1.cx1.hpc.ic.ac.uk at Tue Jul  5 16:49:58 2016
Module time:
	user time   =      22.31 seconds =       0.37 minutes
	system time =       0.26 seconds =       0.00 minutes
	total time  =         23 seconds =       0.38 minutes
Total time:
	user time   =      22.31 seconds =       0.37 minutes
	system time =       0.26 seconds =       0.00 minutes
	total time  =         23 seconds =       0.38 minutes


Properties will be evaluated at   0.000000,   0.000000,   0.000000 Bohr

Properties computed using the  density matrix

  Nuclear Dipole Moment: (a.u.)
     X:    -7.3721      Y:    -0.0874      Z:    -4.1721

  Electronic Dipole Moment: (a.u.)
     X:     5.5646      Y:     0.2256      Z:     4.0121

  Dipole Moment: (a.u.)
     X:    -1.8075      Y:     0.1383      Z:    -0.1599     Total:     1.8198

  Dipole Moment: (Debye)
     X:    -4.5942      Y:     0.3515      Z:    -0.4065     Total:     4.6255

  Quadrupole Moment: (Debye Ang)
    XX:   -61.4748     YY:   -63.9503     ZZ:   -48.6097
    XY:    -0.4280     XZ:    -0.9884     YZ:     2.1498

  Traceless Quadrupole Moment: (Debye Ang)
    XX:    -3.4632     YY:    -5.9387     ZZ:     9.4019
    XY:    -0.4280     XZ:    -0.9884     YZ:     2.1498

  Mulliken Charges: (a.u.)
   Center  Symbol    Alpha    Beta     Spin     Total
       1     H     0.38914  0.38914  0.00000  0.22171
       2     C     3.10737  3.10737  0.00000 -0.21474
       3     C     3.08739  3.08739  0.00000 -0.17478
       4     C     3.08249  3.08249  0.00000 -0.16498
       5     H     0.39098  0.39098  0.00000  0.21805
       6     C     3.12137  3.12137  0.00000 -0.24274
       7     H     0.37806  0.37806  0.00000  0.24389
       8     C     2.91179  2.91179  0.00000  0.17643
       9     H     0.39322  0.39322  0.00000  0.21356
      10     C     2.96419  2.96419  0.00000  0.07163
      11     N     3.26530  3.26530  0.00000  0.46939
      12     C     3.25685  3.25685  0.00000 -0.51371
      13     O     4.22458  4.22458  0.00000 -0.44916
      14     O     4.22537  4.22537  0.00000 -0.45074
      15     H     0.39545  0.39545  0.00000  0.20910
      16     H     0.40685  0.40685  0.00000  0.18629
      17     H     0.39960  0.39960  0.00000  0.20080

   Total alpha = 36.00000, Total beta = 36.00000, Total charge =  0.00000


*** PSI4 exiting successfully. Buy a developer a beer!
