    -----------------------------------------------------------------------
          Psi4: An Open-Source Ab Initio Electronic Structure Package
                              Psi4 (no tag) Driver

                          Git: Rev {detached?}  

    J. M. Turney, A. C. Simmonett, R. M. Parrish, E. G. Hohenstein,
    F. A. Evangelista, J. T. Fermann, B. J. Mintz, L. A. Burns, J. J. Wilke,
    M. L. Abrams, N. J. Russ, M. L. Leininger, C. L. Janssen, E. T. Seidl,
    W. D. Allen, H. F. Schaefer, R. A. King, E. F. Valeev, C. D. Sherrill,
    and T. D. Crawford, WIREs Comput. Mol. Sci. 2, 556-565 (2012)
    (doi: 10.1002/wcms.93)

                         Additional Contributions by
    A. E. DePrince, M. Saitow, U. Bozkaya, A. Yu. Sokolov
    -----------------------------------------------------------------------


    Psi4 started on: Tue Jul  5 16:42:11 2016

    Process ID:   4594
    PSI4DATADIR: /export131/home/mjharvey/miniconda3/share
    Memory level set to 256.000 MB

  ==> Input File <==

--------------------------------------------------------------------------
set {
	reference rhf
	basis 6-31G*
}


set_num_threads( 1 )
memory 2 gb

molecule MOL {
0 1

H	 2.845955	 -0.323208	 0.022310
C	 1.900140	 0.071967	 -0.330070
C	 0.778463	 -0.508087	 0.517968
H	 1.782469	 -0.206877	 -1.370777
H	 1.922247	 1.149867	 -0.254252
N	 -0.540928	 0.005139	 0.058438
H	 0.716718	 -1.581298	 0.454712
H	 0.859711	 -0.198647	 1.550086
O	 -1.276183	 0.455250	 0.880674
O	 -0.771533	 -0.069283	 -1.110229

	symmetry c1
}
ee = energy('scf')
oeprop('DIPOLE', 'QUADRUPOLE', 'MULLIKEN_CHARGES')
f=open( 'psi4out.xyz', 'w' )
f.write( "10  " )
f.write( str(ee) + "\n" )
f.write( MOL.save_string_xyz() )
f.close()
--------------------------------------------------------------------------

  Memory set to   2.000 GiB by Python script.

*** tstart() called on cx1-3-16-3.cx1.hpc.ic.ac.uk
*** at Tue Jul  5 16:42:11 2016


         ---------------------------------------------------------
                                   SCF
            by Justin Turney, Rob Parrish, and Andy Simmonett
                              RHF Reference
                        1 Threads,   2000 MiB Core
         ---------------------------------------------------------

  ==> Geometry <==

    Molecular point group: c1
    Full point group: C1

    Geometry (in Angstrom), charge = 0, multiplicity = 1:

       Center              X                  Y                   Z               Mass       
    ------------   -----------------  -----------------  -----------------  -----------------
           H          2.845871923241    -0.321112757372     0.024887562007     1.007825032070
           C          1.900056923241     0.074062242628    -0.327492437993    12.000000000000
           C          0.778379923241    -0.505991757372     0.520545562007    12.000000000000
           H          1.782385923241    -0.204781757372    -1.368199437993     1.007825032070
           H          1.922163923241     1.151962242628    -0.251674437993     1.007825032070
           N         -0.541011076759     0.007234242628     0.061015562007    14.003074004780
           H          0.716634923241    -1.579202757372     0.457289562007     1.007825032070
           H          0.859627923241    -0.196551757372     1.552663562007     1.007825032070
           O         -1.276266076759     0.457345242628     0.883251562007    15.994914619560
           O         -0.771616076759    -0.067187757372    -1.107651437993    15.994914619560

  Running in c1 symmetry.

  Rotational constants: A =      0.34242  B =      0.14256  C =      0.11275 [cm^-1]
  Rotational constants: A =  10265.63787  B =   4273.75836  C =   3380.25871 [MHz]
  Nuclear repulsion =  186.318965068902685

  Charge       = 0
  Multiplicity = 1
  Electrons    = 40
  Nalpha       = 20
  Nbeta        = 20

  ==> Algorithm <==

  SCF Algorithm Type is DF.
  DIIS enabled.
  MOM disabled.
  Fractional occupation disabled.
  Guess Type is CORE.
  Energy threshold   = 1.00e-06
  Density threshold  = 1.00e-06
  Integral threshold = 0.00e+00

  ==> Primary Basis <==

  Basis Set: 6-31G*
    Number of shells: 40
    Number of basis function: 85
    Number of Cartesian functions: 85
    Spherical Harmonics?: false
    Max angular momentum: 2

  ==> Pre-Iterations <==

   -------------------------------------------------------
    Irrep   Nso     Nmo     Nalpha   Nbeta   Ndocc  Nsocc
   -------------------------------------------------------
     A         85      85       0       0       0       0
   -------------------------------------------------------
    Total      85      85      20      20      20       0
   -------------------------------------------------------

 OEINTS: Overlap, kinetic, potential, dipole, and quadrupole integrals
         stored in file 35.

  ==> Integral Setup <==

  ==> DFJK: Density-Fitted J/K Matrices <==

    J tasked:                  Yes
    K tasked:                  Yes
    wK tasked:                  No
    OpenMP threads:              1
    Integrals threads:           1
    Memory (MB):              1430
    Algorithm:                Core
    Integral Cache:           NONE
    Schwarz Cutoff:          1E-12
    Fitting Condition:       1E-12

   => Auxiliary Basis Set <=

  Basis Set: 
    Number of shells: 165
    Number of basis function: 530
    Number of Cartesian functions: 530
    Spherical Harmonics?: false
    Max angular momentum: 3

  Minimum eigenvalue in the overlap matrix is 2.9597758120E-03.
  Using Symmetric Orthogonalization.
  SCF Guess: Core (One-Electron) Hamiltonian.

  ==> Iterations <==

                           Total Energy        Delta E     RMS |[F,P]|

   @DF-RHF iter   1:  -232.96577192509267   -2.32966e+02   8.63012e-02 
   @DF-RHF iter   2:  -168.36918430456910    6.45966e+01   1.01208e-01 DIIS
   @DF-RHF iter   3:  -269.43709778990308   -1.01068e+02   3.39231e-02 DIIS
   @DF-RHF iter   4:  -254.20483955090714    1.52323e+01   6.41660e-02 DIIS
   @DF-RHF iter   5:  -280.88334526935415   -2.66785e+01   2.13393e-02 DIIS
   @DF-RHF iter   6:  -282.23204790871290   -1.34870e+00   1.06944e-02 DIIS
   @DF-RHF iter   7:  -282.55366732082007   -3.21619e-01   6.53874e-03 DIIS
   @DF-RHF iter   8:  -282.68405147240827   -1.30384e-01   1.66514e-03 DIIS
   @DF-RHF iter   9:  -282.69827757540156   -1.42261e-02   5.76220e-04 DIIS
   @DF-RHF iter  10:  -282.69975097935441   -1.47340e-03   2.60919e-04 DIIS
   @DF-RHF iter  11:  -282.70016729691758   -4.16318e-04   6.82972e-05 DIIS
   @DF-RHF iter  12:  -282.70020216306489   -3.48661e-05   3.72935e-05 DIIS
   @DF-RHF iter  13:  -282.70021071334315   -8.55028e-06   1.55642e-05 DIIS
   @DF-RHF iter  14:  -282.70021280338523   -2.09004e-06   5.86182e-06 DIIS
   @DF-RHF iter  15:  -282.70021323720522   -4.33820e-07   1.70456e-06 DIIS
   @DF-RHF iter  16:  -282.70021328006214   -4.28569e-08   5.00084e-07 DIIS

  ==> Post-Iterations <==

    Orbital Energies (a.u.)
    -----------------------

    Doubly Occupied:                                                      

       1A    -20.604722     2A    -20.600986     3A    -15.849218  
       4A    -11.304077     5A    -11.249332     6A     -1.632844  
       7A     -1.418459     8A     -1.126808     9A     -0.966666  
      10A     -0.836000    11A     -0.762151    12A     -0.740399  
      13A     -0.726479    14A     -0.651476    15A     -0.590455  
      16A     -0.562634    17A     -0.542931    18A     -0.486040  
      19A     -0.478595    20A     -0.450534  

    Virtual:                                                              

      21A      0.118887    22A      0.227261    23A      0.268357  
      24A      0.277666    25A      0.294593    26A      0.318432  
      27A      0.326916    28A      0.374858    29A      0.528391  
      30A      0.607932    31A      0.688608    32A      0.706134  
      33A      0.747112    34A      0.748664    35A      0.853044  
      36A      0.860587    37A      0.926692    38A      0.998189  
      39A      1.027119    40A      1.065759    41A      1.085713  
      42A      1.109934    43A      1.124741    44A      1.141057  
      45A      1.181418    46A      1.208288    47A      1.228615  
      48A      1.247557    49A      1.287700    50A      1.291290  
      51A      1.346680    52A      1.403661    53A      1.555459  
      54A      1.600158    55A      1.712401    56A      1.749061  
      57A      1.811907    58A      1.939712    59A      2.056018  
      60A      2.081840    61A      2.112511    62A      2.129118  
      63A      2.154402    64A      2.212001    65A      2.270139  
      66A      2.279716    67A      2.396907    68A      2.426839  
      69A      2.497669    70A      2.565127    71A      2.627863  
      72A      2.686233    73A      2.758906    74A      2.866046  
      75A      2.905721    76A      3.076545    77A      3.220508  
      78A      3.254926    79A      3.284055    80A      3.489630  
      81A      4.065263    82A      4.210862    83A      4.274966  
      84A      4.610641    85A      4.819771  

    Final Occupation by Irrep:
              A 
    DOCC [    20 ]

  Energy converged.

  @DF-RHF Final Energy:  -282.70021328006214

   => Energetics <=

    Nuclear Repulsion Energy =            186.3189650689026848
    One-Electron Energy =                -754.8767349639177837
    Two-Electron Energy =                 285.8575566149529550
    DFT Exchange-Correlation Energy =       0.0000000000000000
    Empirical Dispersion Energy =           0.0000000000000000
    PCM Polarization Energy =               0.0000000000000000
    EFP Energy =                            0.0000000000000000
    Total Energy =                       -282.7002132800621439

    Alert: EFP and PCM quantities not currently incorporated into SCF psivars.

Properties will be evaluated at   0.000000,   0.000000,   0.000000 Bohr
  ==> Properties <==


Properties computed using the SCF density matrix

  Nuclear Dipole Moment: (a.u.)
     X:     7.6103      Y:    -1.0759      Z:     0.3878

  Electronic Dipole Moment: (a.u.)
     X:    -6.1208      Y:     0.5640      Z:     0.0324

  Dipole Moment: (a.u.)
     X:     1.4895      Y:    -0.5119      Z:     0.4202     Total:     1.6301

  Dipole Moment: (Debye)
     X:     3.7858      Y:    -1.3012      Z:     1.0680     Total:     4.1432


  Saving occupied orbitals to File 180.

*** tstop() called on cx1-3-16-3.cx1.hpc.ic.ac.uk at Tue Jul  5 16:42:17 2016
Module time:
	user time   =       5.20 seconds =       0.09 minutes
	system time =       0.03 seconds =       0.00 minutes
	total time  =          6 seconds =       0.10 minutes
Total time:
	user time   =       5.20 seconds =       0.09 minutes
	system time =       0.03 seconds =       0.00 minutes
	total time  =          6 seconds =       0.10 minutes


Properties will be evaluated at   0.000000,   0.000000,   0.000000 Bohr

Properties computed using the  density matrix

  Nuclear Dipole Moment: (a.u.)
     X:     7.6103      Y:    -1.0759      Z:     0.3878

  Electronic Dipole Moment: (a.u.)
     X:    -6.1208      Y:     0.5640      Z:     0.0324

  Dipole Moment: (a.u.)
     X:     1.4895      Y:    -0.5119      Z:     0.4202     Total:     1.6301

  Dipole Moment: (Debye)
     X:     3.7858      Y:    -1.3012      Z:     1.0680     Total:     4.1432

  Quadrupole Moment: (Debye Ang)
    XX:   -30.8126     YY:   -28.0265     ZZ:   -32.3593
    XY:     0.7743     XZ:     0.6992     YZ:    -1.2653

  Traceless Quadrupole Moment: (Debye Ang)
    XX:    -0.4132     YY:     2.3730     ZZ:    -1.9598
    XY:     0.7743     XZ:     0.6992     YZ:    -1.2653

  Mulliken Charges: (a.u.)
   Center  Symbol    Alpha    Beta     Spin     Total
       1     H     0.40721  0.40721  0.00000  0.18559
       2     C     3.25611  3.25611  0.00000 -0.51222
       3     C     3.09461  3.09461  0.00000 -0.18922
       4     H     0.39267  0.39267  0.00000  0.21466
       5     H     0.40322  0.40322  0.00000  0.19357
       6     N     3.21846  3.21846  0.00000  0.56307
       7     H     0.38541  0.38541  0.00000  0.22918
       8     H     0.38567  0.38567  0.00000  0.22866
       9     O     4.22725  4.22725  0.00000 -0.45449
      10     O     4.22940  4.22940  0.00000 -0.45880

   Total alpha = 20.00000, Total beta = 20.00000, Total charge =  0.00000


*** PSI4 exiting successfully. Buy a developer a beer!
