    -----------------------------------------------------------------------
          Psi4: An Open-Source Ab Initio Electronic Structure Package
                              Psi4 (no tag) Driver

                          Git: Rev {detached?}  

    J. M. Turney, A. C. Simmonett, R. M. Parrish, E. G. Hohenstein,
    F. A. Evangelista, J. T. Fermann, B. J. Mintz, L. A. Burns, J. J. Wilke,
    M. L. Abrams, N. J. Russ, M. L. Leininger, C. L. Janssen, E. T. Seidl,
    W. D. Allen, H. F. Schaefer, R. A. King, E. F. Valeev, C. D. Sherrill,
    and T. D. Crawford, WIREs Comput. Mol. Sci. 2, 556-565 (2012)
    (doi: 10.1002/wcms.93)

                         Additional Contributions by
    A. E. DePrince, M. Saitow, U. Bozkaya, A. Yu. Sokolov
    -----------------------------------------------------------------------


    Psi4 started on: Tue Jul  5 16:59:33 2016

    Process ID:  27723
    PSI4DATADIR: /export131/home/mjharvey/miniconda3/share
    Memory level set to 256.000 MB

  ==> Input File <==

--------------------------------------------------------------------------
set {
	reference rhf
	basis 6-31G*
}


set_num_threads( 1 )
memory 2 gb

molecule MOL {
0 1

H	 -2.455504	 -1.062989	 3.255514
C	 -2.425350	 -0.963885	 2.187839
C	 -1.271134	 -0.975404	 1.562018
H	 -3.351856	 -0.856911	 1.655811
O	 -1.180634	 -0.819263	 0.215062
H	 -0.332713	 -1.088641	 2.075572
C	 0.051604	 -1.018856	 -0.387932
C	 1.043764	 0.054862	 -0.001873
H	 -0.017620	 -1.041351	 -1.469781
H	 0.437898	 -1.966374	 -0.042284
F	 0.990529	 0.254188	 1.307035
F	 2.284001	 -0.290991	 -0.305236
F	 0.789209	 1.201364	 -0.597797

	symmetry c1
}
set optking {
	frozen_dihedral = ("
		11 8 7 9,
		6 3 2 1,
		6 3 5 7
	")
}

ee = energy('scf')
oeprop('DIPOLE', 'QUADRUPOLE', 'MULLIKEN_CHARGES')
f=open( 'psi4out.xyz', 'w' )
f.write( "13  " )
f.write( str(ee) + "\n" )
f.write( MOL.save_string_xyz() )
f.close()
--------------------------------------------------------------------------

  Memory set to   2.000 GiB by Python script.

*** tstart() called on cx1-3-14-4.cx1.hpc.ic.ac.uk
*** at Tue Jul  5 16:59:33 2016


         ---------------------------------------------------------
                                   SCF
            by Justin Turney, Rob Parrish, and Andy Simmonett
                              RHF Reference
                        1 Threads,   2000 MiB Core
         ---------------------------------------------------------

  ==> Geometry <==

    Molecular point group: c1
    Full point group: C1

    Geometry (in Angstrom), charge = 0, multiplicity = 1:

       Center              X                  Y                   Z               Mass       
    ------------   -----------------  -----------------  -----------------  -----------------
           H         -2.624849351223    -0.810016123528     2.803606302296     1.007825032070
           C         -2.594695351223    -0.710912123528     1.735931302296    12.000000000000
           C         -1.440479351223    -0.722431123528     1.110110302296    12.000000000000
           H         -3.521201351223    -0.603938123528     1.203903302296     1.007825032070
           O         -1.349979351223    -0.566290123528    -0.236845697704    15.994914619560
           H         -0.502058351223    -0.835668123528     1.623664302296     1.007825032070
           C         -0.117741351223    -0.765883123528    -0.839839697704    12.000000000000
           C          0.874418648777     0.307834876472    -0.453780697704    12.000000000000
           H         -0.186965351223    -0.788378123528    -1.921688697704     1.007825032070
           H          0.268552648777    -1.713401123528    -0.494191697704     1.007825032070
           F          0.821183648777     0.507160876472     0.855127302296    18.998403224000
           F          2.114655648777    -0.038018123528    -0.757143697704    18.998403224000
           F          0.619863648777     1.454336876472    -1.049704697704    18.998403224000

  Running in c1 symmetry.

  Rotational constants: A =      0.15183  B =      0.04150  C =      0.03995 [cm^-1]
  Rotational constants: A =   4551.78011  B =   1244.23964  C =   1197.56403 [MHz]
  Nuclear repulsion =  417.547658349243420

  Charge       = 0
  Multiplicity = 1
  Electrons    = 64
  Nalpha       = 32
  Nbeta        = 32

  ==> Algorithm <==

  SCF Algorithm Type is DF.
  DIIS enabled.
  MOM disabled.
  Fractional occupation disabled.
  Guess Type is CORE.
  Energy threshold   = 1.00e-06
  Density threshold  = 1.00e-06
  Integral threshold = 0.00e+00

  ==> Primary Basis <==

  Basis Set: 6-31G*
    Number of shells: 58
    Number of basis function: 130
    Number of Cartesian functions: 130
    Spherical Harmonics?: false
    Max angular momentum: 2

  ==> Pre-Iterations <==

   -------------------------------------------------------
    Irrep   Nso     Nmo     Nalpha   Nbeta   Ndocc  Nsocc
   -------------------------------------------------------
     A        130     130       0       0       0       0
   -------------------------------------------------------
    Total     130     130      32      32      32       0
   -------------------------------------------------------

 OEINTS: Overlap, kinetic, potential, dipole, and quadrupole integrals
         stored in file 35.

  ==> Integral Setup <==

  ==> DFJK: Density-Fitted J/K Matrices <==

    J tasked:                  Yes
    K tasked:                  Yes
    wK tasked:                  No
    OpenMP threads:              1
    Integrals threads:           1
    Memory (MB):              1430
    Algorithm:                Core
    Integral Cache:           NONE
    Schwarz Cutoff:          1E-12
    Fitting Condition:       1E-12

   => Auxiliary Basis Set <=

  Basis Set: 
    Number of shells: 237
    Number of basis function: 773
    Number of Cartesian functions: 773
    Spherical Harmonics?: false
    Max angular momentum: 3

  Minimum eigenvalue in the overlap matrix is 1.7746242432E-03.
  Using Symmetric Orthogonalization.
  SCF Guess: Core (One-Electron) Hamiltonian.

  ==> Iterations <==

                           Total Energy        Delta E     RMS |[F,P]|

   @DF-RHF iter   1:  -440.70096134019093   -4.40701e+02   7.47914e-02 
   @DF-RHF iter   2:  -176.76011165918533    2.63941e+02   9.81956e-02 DIIS
   @DF-RHF iter   3:  -491.11885574943869   -3.14359e+02   4.02835e-02 DIIS
   @DF-RHF iter   4:  -423.61993354111780    6.74989e+01   6.60111e-02 DIIS
   @DF-RHF iter   5:  -523.97411105521792   -1.00354e+02   1.56444e-02 DIIS
   @DF-RHF iter   6:  -527.08288301176844   -3.10877e+00   7.98289e-03 DIIS
   @DF-RHF iter   7:  -527.49452627567644   -4.11643e-01   1.75452e-03 DIIS
   @DF-RHF iter   8:  -527.51784298171174   -2.33167e-02   8.76303e-04 DIIS
   @DF-RHF iter   9:  -527.52489718298352   -7.05420e-03   4.11043e-04 DIIS
   @DF-RHF iter  10:  -527.52641211503158   -1.51493e-03   2.06153e-04 DIIS
   @DF-RHF iter  11:  -527.52692097833165   -5.08863e-04   3.74232e-05 DIIS
   @DF-RHF iter  12:  -527.52694035134994   -1.93730e-05   1.44219e-05 DIIS
   @DF-RHF iter  13:  -527.52694420769535   -3.85635e-06   6.36070e-06 DIIS
   @DF-RHF iter  14:  -527.52694482745460   -6.19759e-07   1.56414e-06 DIIS
   @DF-RHF iter  15:  -527.52694487931262   -5.18580e-08   5.74305e-07 DIIS

  ==> Post-Iterations <==

    Orbital Energies (a.u.)
    -----------------------

    Doubly Occupied:                                                      

       1A    -26.350217     2A    -26.348478     3A    -26.345282  
       4A    -20.605115     5A    -11.507821     6A    -11.319681  
       7A    -11.292679     8A    -11.211894     9A     -1.747594  
      10A     -1.646536    11A     -1.643664    12A     -1.436143  
      13A     -1.083535    14A     -1.015155    15A     -0.929780  
      16A     -0.840254    17A     -0.836497    18A     -0.834383  
      19A     -0.777634    20A     -0.731652    21A     -0.715593  
      22A     -0.699756    23A     -0.677160    24A     -0.662585  
      25A     -0.658158    26A     -0.648790    27A     -0.632160  
      28A     -0.590311    29A     -0.558963    30A     -0.523993  
      31A     -0.501571    32A     -0.348269  

    Virtual:                                                              

      33A      0.189833    34A      0.252061    35A      0.268297  
      36A      0.283737    37A      0.301731    38A      0.310330  
      39A      0.348499    40A      0.410169    41A      0.421422  
      42A      0.452416    43A      0.472398    44A      0.511288  
      45A      0.520719    46A      0.688186    47A      0.704966  
      48A      0.724891    49A      0.749235    50A      0.761444  
      51A      0.778113    52A      0.813487    53A      0.822051  
      54A      0.875788    55A      0.897696    56A      0.934355  
      57A      0.975506    58A      1.076716    59A      1.118216  
      60A      1.137382    61A      1.150600    62A      1.169918  
      63A      1.203123    64A      1.237748    65A      1.269227  
      66A      1.335042    67A      1.362532    68A      1.387103  
      69A      1.416945    70A      1.427110    71A      1.435541  
      72A      1.470608    73A      1.563555    74A      1.610740  
      75A      1.640423    76A      1.655132    77A      1.658148  
      78A      1.675083    79A      1.699088    80A      1.737543  
      81A      1.748632    82A      1.810407    83A      1.852576  
      84A      1.910655    85A      1.961017    86A      1.969413  
      87A      2.012478    88A      2.075865    89A      2.105308  
      90A      2.127829    91A      2.143476    92A      2.160065  
      93A      2.228133    94A      2.236138    95A      2.274135  
      96A      2.305882    97A      2.311213    98A      2.344639  
      99A      2.371225   100A      2.395725   101A      2.405408  
     102A      2.436239   103A      2.491557   104A      2.508880  
     105A      2.525295   106A      2.623916   107A      2.687964  
     108A      2.697794   109A      2.740768   110A      2.815441  
     111A      2.856016   112A      2.901558   113A      3.000718  
     114A      3.099095   115A      3.142185   116A      3.163353  
     117A      3.199673   118A      3.314662   119A      3.417976  
     120A      3.425872   121A      3.446249   122A      3.480824  
     123A      4.365459   124A      4.541537   125A      4.602957  
     126A      4.740618   127A      4.871040   128A      4.957159  
     129A      5.188951   130A      5.846539  

    Final Occupation by Irrep:
              A 
    DOCC [    32 ]

  Energy converged.

  @DF-RHF Final Energy:  -527.52694487931262

   => Energetics <=

    Nuclear Repulsion Energy =            417.5476583492434202
    One-Electron Energy =               -1558.7066281947331845
    Two-Electron Energy =                 613.6320249661764592
    DFT Exchange-Correlation Energy =       0.0000000000000000
    Empirical Dispersion Energy =           0.0000000000000000
    PCM Polarization Energy =               0.0000000000000000
    EFP Energy =                            0.0000000000000000
    Total Energy =                       -527.5269448793133051

    Alert: EFP and PCM quantities not currently incorporated into SCF psivars.

Properties will be evaluated at   0.000000,   0.000000,   0.000000 Bohr
  ==> Properties <==


Properties computed using the SCF density matrix

  Nuclear Dipole Moment: (a.u.)
     X:    -9.5167      Y:    -6.2715      Z:     3.9109

  Electronic Dipole Moment: (a.u.)
     X:     9.6555      Y:     5.6176      Z:    -3.9917

  Dipole Moment: (a.u.)
     X:     0.1388      Y:    -0.6539      Z:    -0.0808     Total:     0.6733

  Dipole Moment: (Debye)
     X:     0.3527      Y:    -1.6621      Z:    -0.2053     Total:     1.7114


  Saving occupied orbitals to File 180.

*** tstop() called on cx1-3-14-4.cx1.hpc.ic.ac.uk at Tue Jul  5 16:59:43 2016
Module time:
	user time   =       9.67 seconds =       0.16 minutes
	system time =       0.07 seconds =       0.00 minutes
	total time  =         10 seconds =       0.17 minutes
Total time:
	user time   =       9.67 seconds =       0.16 minutes
	system time =       0.07 seconds =       0.00 minutes
	total time  =         10 seconds =       0.17 minutes


Properties will be evaluated at   0.000000,   0.000000,   0.000000 Bohr

Properties computed using the  density matrix

  Nuclear Dipole Moment: (a.u.)
     X:    -9.5167      Y:    -6.2715      Z:     3.9109

  Electronic Dipole Moment: (a.u.)
     X:     9.6555      Y:     5.6176      Z:    -3.9917

  Dipole Moment: (a.u.)
     X:     0.1388      Y:    -0.6539      Z:    -0.0808     Total:     0.6733

  Dipole Moment: (Debye)
     X:     0.3527      Y:    -1.6621      Z:    -0.2053     Total:     1.7114

  Quadrupole Moment: (Debye Ang)
    XX:   -47.8148     YY:   -45.4697     ZZ:   -41.2208
    XY:    -1.2226     XZ:    -0.7533     YZ:     0.6406

  Traceless Quadrupole Moment: (Debye Ang)
    XX:    -2.9797     YY:    -0.6346     ZZ:     3.6143
    XY:    -1.2226     XZ:    -0.7533     YZ:     0.6406

  Mulliken Charges: (a.u.)
   Center  Symbol    Alpha    Beta     Spin     Total
       1     H     0.40771  0.40771  0.00000  0.18459
       2     C     3.23820  3.23820  0.00000 -0.47639
       3     C     2.89844  2.89844  0.00000  0.20312
       4     H     0.40405  0.40405  0.00000  0.19189
       5     O     4.30546  4.30546  0.00000 -0.61091
       6     H     0.39613  0.39613  0.00000  0.20773
       7     C     3.06606  3.06606  0.00000 -0.13212
       8     C     2.45599  2.45599  0.00000  1.08803
       9     H     0.38717  0.38717  0.00000  0.22565
      10     H     0.40521  0.40521  0.00000  0.18958
      11     F     4.68139  4.68139  0.00000 -0.36278
      12     F     4.68013  4.68013  0.00000 -0.36025
      13     F     4.67406  4.67406  0.00000 -0.34813

   Total alpha = 32.00000, Total beta = 32.00000, Total charge =  0.00000


*** PSI4 exiting successfully. Buy a developer a beer!
