    -----------------------------------------------------------------------
          Psi4: An Open-Source Ab Initio Electronic Structure Package
                              Psi4 (no tag) Driver

                          Git: Rev {detached?}  

    J. M. Turney, A. C. Simmonett, R. M. Parrish, E. G. Hohenstein,
    F. A. Evangelista, J. T. Fermann, B. J. Mintz, L. A. Burns, J. J. Wilke,
    M. L. Abrams, N. J. Russ, M. L. Leininger, C. L. Janssen, E. T. Seidl,
    W. D. Allen, H. F. Schaefer, R. A. King, E. F. Valeev, C. D. Sherrill,
    and T. D. Crawford, WIREs Comput. Mol. Sci. 2, 556-565 (2012)
    (doi: 10.1002/wcms.93)

                         Additional Contributions by
    A. E. DePrince, M. Saitow, U. Bozkaya, A. Yu. Sokolov
    -----------------------------------------------------------------------


    Psi4 started on: Tue Jul  5 18:37:21 2016

    Process ID:   7592
    PSI4DATADIR: /export131/home/mjharvey/miniconda3/share
    Memory level set to 256.000 MB

  ==> Input File <==

--------------------------------------------------------------------------
set {
	reference rhf
	basis 6-31G*
}


set_num_threads( 1 )
memory 2 gb

molecule MOL {
0 1

H	 -2.577606	 0.247184	 1.509904
O	 -1.840915	 -0.185680	 1.103718
C	 -2.061112	 -1.573124	 1.079922
C	 -1.000105	 -2.363248	 1.838008
H	 -3.028805	 -1.725472	 1.540395
H	 -2.132069	 -1.930135	 0.053137
C	 -0.685556	 -1.807258	 3.228980
H	 -1.333629	 -3.394148	 1.923887
H	 -0.091442	 -2.372670	 1.238334
C	 0.019134	 -0.448744	 3.177307
H	 -0.063665	 -2.518404	 3.765533
H	 -1.610658	 -1.708344	 3.797085
C	 -0.613789	 0.569013	 2.221316
H	 0.055990	 -0.026221	 4.179785
H	 1.052934	 -0.606335	 2.877102
C	 -0.513021	 0.207968	 0.736739
H	 -1.664887	 0.674722	 2.481769
H	 -0.162384	 1.546163	 2.386389
C	 0.920763	 0.265261	 0.205308
H	 -1.136801	 0.888299	 0.158675
H	 -0.910973	 -0.789469	 0.566274
C	 1.920042	 -0.466562	 1.100596
H	 0.951453	 -0.162864	 -0.794319
H	 1.224408	 1.304843	 0.100646
H	 1.662094	 -1.517291	 1.198863
H	 2.926042	 -0.409653	 0.696417
H	 1.940217	 -0.037709	 2.098615

	symmetry c1
}
set optking {
	frozen_dihedral = ("
		14 10 7 4,
		14 10 13 16,
		10 7 4 8,
		8 4 3 2,
		10 13 16 20,
		20 16 19 22
	")
}

ee = energy('scf')
oeprop('DIPOLE', 'QUADRUPOLE', 'MULLIKEN_CHARGES')
f=open( 'psi4out.xyz', 'w' )
f.write( "27  " )
f.write( str(ee) + "\n" )
f.write( MOL.save_string_xyz() )
f.close()
--------------------------------------------------------------------------

  Memory set to   2.000 GiB by Python script.

*** tstart() called on cx1-3-4-2.cx1.hpc.ic.ac.uk
*** at Tue Jul  5 18:37:22 2016


         ---------------------------------------------------------
                                   SCF
            by Justin Turney, Rob Parrish, and Andy Simmonett
                              RHF Reference
                        1 Threads,   2000 MiB Core
         ---------------------------------------------------------

  ==> Geometry <==

    Molecular point group: c1
    Full point group: C1

    Geometry (in Angstrom), charge = 0, multiplicity = 1:

       Center              X                  Y                   Z               Mass       
    ------------   -----------------  -----------------  -----------------  -----------------
           H         -2.127713319830     0.885024596641    -0.109354898601     1.007825032070
           O         -1.391022319830     0.452160596641    -0.515540898601    15.994914619560
           C         -1.611219319830    -0.935283403359    -0.539336898601    12.000000000000
           C         -0.550212319830    -1.725407403359     0.218749101399    12.000000000000
           H         -2.578912319830    -1.087631403359    -0.078863898601     1.007825032070
           H         -1.682176319830    -1.292294403359    -1.566121898601     1.007825032070
           C         -0.235663319830    -1.169417403359     1.609721101399    12.000000000000
           H         -0.883736319830    -2.756307403359     0.304628101399     1.007825032070
           H          0.358450680170    -1.734829403359    -0.380924898601     1.007825032070
           C          0.469026680170     0.189096596641     1.558048101399    12.000000000000
           H          0.386227680170    -1.880563403359     2.146274101399     1.007825032070
           H         -1.160765319830    -1.070503403359     2.177826101399     1.007825032070
           C         -0.163896319830     1.206853596641     0.602057101399    12.000000000000
           H          0.505882680170     0.611619596641     2.560526101399     1.007825032070
           H          1.502826680170     0.031505596641     1.257843101399     1.007825032070
           C         -0.063128319830     0.845808596641    -0.882519898601    12.000000000000
           H         -1.214994319830     1.312562596641     0.862510101399     1.007825032070
           H          0.287508680170     2.184003596641     0.767130101399     1.007825032070
           C          1.370655680170     0.903101596641    -1.413950898601    12.000000000000
           H         -0.686908319830     1.526139596641    -1.460583898601     1.007825032070
           H         -0.461080319830    -0.151628403359    -1.052984898601     1.007825032070
           C          2.369934680170     0.171278596641    -0.518662898601    12.000000000000
           H          1.401345680170     0.474976596641    -2.413577898601     1.007825032070
           H          1.674300680170     1.942683596641    -1.518612898601     1.007825032070
           H          2.111986680170    -0.879450403359    -0.420395898601     1.007825032070
           H          3.375934680170     0.228187596641    -0.922841898601     1.007825032070
           H          2.390109680170     0.600131596641     0.479356101399     1.007825032070

  Running in c1 symmetry.

  Rotational constants: A =      0.06973  B =      0.05024  C =      0.04244 [cm^-1]
  Rotational constants: A =   2090.31125  B =   1506.24004  C =   1272.38643 [MHz]
  Nuclear repulsion =  558.963410276747595

  Charge       = 0
  Multiplicity = 1
  Electrons    = 74
  Nalpha       = 37
  Nbeta        = 37

  ==> Algorithm <==

  SCF Algorithm Type is DF.
  DIIS enabled.
  MOM disabled.
  Fractional occupation disabled.
  Guess Type is CORE.
  Energy threshold   = 1.00e-06
  Density threshold  = 1.00e-06
  Integral threshold = 0.00e+00

  ==> Primary Basis <==

  Basis Set: 6-31G*
    Number of shells: 90
    Number of basis function: 171
    Number of Cartesian functions: 171
    Spherical Harmonics?: false
    Max angular momentum: 2

  ==> Pre-Iterations <==

   -------------------------------------------------------
    Irrep   Nso     Nmo     Nalpha   Nbeta   Ndocc  Nsocc
   -------------------------------------------------------
     A        171     171       0       0       0       0
   -------------------------------------------------------
    Total     171     171      37      37      37       0
   -------------------------------------------------------

 OEINTS: Overlap, kinetic, potential, dipole, and quadrupole integrals
         stored in file 35.

  ==> Integral Setup <==

  ==> DFJK: Density-Fitted J/K Matrices <==

    J tasked:                  Yes
    K tasked:                  Yes
    wK tasked:                  No
    OpenMP threads:              1
    Integrals threads:           1
    Memory (MB):              1430
    Algorithm:                Core
    Integral Cache:           NONE
    Schwarz Cutoff:          1E-12
    Fitting Condition:       1E-12

   => Auxiliary Basis Set <=

  Basis Set: 
    Number of shells: 378
    Number of basis function: 1179
    Number of Cartesian functions: 1179
    Spherical Harmonics?: false
    Max angular momentum: 3

  Minimum eigenvalue in the overlap matrix is 2.1799999260E-03.
  Using Symmetric Orthogonalization.
  SCF Guess: Core (One-Electron) Hamiltonian.

  ==> Iterations <==

                           Total Energy        Delta E     RMS |[F,P]|

   @DF-RHF iter   1:  -258.13783663327320   -2.58138e+02   7.13001e-02 
   @DF-RHF iter   2:  -154.97185334481185    1.03166e+02   6.54436e-02 DIIS
   @DF-RHF iter   3:  -298.08546634842605   -1.43114e+02   5.08658e-02 DIIS
   @DF-RHF iter   4:  -325.26400565278948   -2.71785e+01   5.19153e-02 DIIS
   @DF-RHF iter   5:  -386.24324819217009   -6.09792e+01   9.33593e-03 DIIS
   @DF-RHF iter   6:  -387.49780135731112   -1.25455e+00   3.32717e-03 DIIS
   @DF-RHF iter   7:  -387.67807426132890   -1.80273e-01   7.97019e-04 DIIS
   @DF-RHF iter   8:  -387.69367427887141   -1.56000e-02   2.45753e-04 DIIS
   @DF-RHF iter   9:  -387.69597597066502   -2.30169e-03   1.27891e-04 DIIS
   @DF-RHF iter  10:  -387.69651097397491   -5.35003e-04   3.96334e-05 DIIS
   @DF-RHF iter  11:  -387.69657812856406   -6.71546e-05   1.60704e-05 DIIS
   @DF-RHF iter  12:  -387.69658904799110   -1.09194e-05   4.60486e-06 DIIS
   @DF-RHF iter  13:  -387.69658984314572   -7.95155e-07   1.50940e-06 DIIS
   @DF-RHF iter  14:  -387.69658992273116   -7.95854e-08   4.80331e-07 DIIS

  ==> Post-Iterations <==

    Orbital Energies (a.u.)
    -----------------------

    Doubly Occupied:                                                      

       1A    -20.591943     2A    -11.295366     3A    -11.227913  
       4A    -11.218971     5A    -11.215160     6A    -11.197174  
       7A    -11.189107     8A    -11.182463     9A    -11.157306  
      10A     -1.534317    11A     -1.093348    12A     -1.085319  
      13A     -1.019891    14A     -0.978621    15A     -0.915745  
      16A     -0.897704    17A     -0.838804    18A     -0.767957  
      19A     -0.752424    20A     -0.684725    21A     -0.670189  
      22A     -0.633030    23A     -0.607119    24A     -0.585948  
      25A     -0.576763    26A     -0.565849    27A     -0.540577  
      28A     -0.522007    29A     -0.506311    30A     -0.495561  
      31A     -0.479142    32A     -0.464594    33A     -0.452780  
      34A     -0.421637    35A     -0.410606    36A     -0.371994  
      37A     -0.253527  

    Virtual:                                                              

      38A      0.205209    39A      0.233422    40A      0.264274  
      41A      0.267065    42A      0.277422    43A      0.288803  
      44A      0.290927    45A      0.308026    46A      0.320027  
      47A      0.332862    48A      0.336451    49A      0.344710  
      50A      0.356538    51A      0.359929    52A      0.375055  
      53A      0.383087    54A      0.403267    55A      0.409762  
      56A      0.429209    57A      0.430460    58A      0.442359  
      59A      0.454809    60A      0.476597    61A      0.493098  
      62A      0.545840    63A      0.580205    64A      0.717005  
      65A      0.721469    66A      0.727420    67A      0.755890  
      68A      0.764313    69A      0.770840    70A      0.804752  
      71A      0.827424    72A      0.863073    73A      0.897673  
      74A      0.919382    75A      0.924340    76A      0.939216  
      77A      0.961379    78A      0.979554    79A      1.002353  
      80A      1.016263    81A      1.030642    82A      1.057923  
      83A      1.063812    84A      1.088177    85A      1.126979  
      86A      1.140270    87A      1.143597    88A      1.156394  
      89A      1.170370    90A      1.182229    91A      1.185056  
      92A      1.204238    93A      1.216930    94A      1.218700  
      95A      1.222285    96A      1.240742    97A      1.249655  
      98A      1.262625    99A      1.272336   100A      1.281565  
     101A      1.303569   102A      1.321767   103A      1.357536  
     104A      1.364420   105A      1.400104   106A      1.410087  
     107A      1.460622   108A      1.528690   109A      1.574666  
     110A      1.615077   111A      1.666014   112A      1.710794  
     113A      1.714241   114A      1.758060   115A      1.796208  
     116A      1.848600   117A      1.853415   118A      1.915415  
     119A      1.936366   120A      1.980221   121A      2.017620  
     122A      2.066730   123A      2.078699   124A      2.172723  
     125A      2.208629   126A      2.209491   127A      2.243597  
     128A      2.255859   129A      2.274490   130A      2.295210  
     131A      2.337499   132A      2.344068   133A      2.363086  
     134A      2.399651   135A      2.435874   136A      2.451366  
     137A      2.500291   138A      2.527408   139A      2.562390  
     140A      2.592942   141A      2.637328   142A      2.642081  
     143A      2.686567   144A      2.701215   145A      2.709610  
     146A      2.725505   147A      2.749675   148A      2.760557  
     149A      2.786677   150A      2.800577   151A      2.817258  
     152A      2.876410   153A      2.926479   154A      2.973212  
     155A      2.989683   156A      3.022267   157A      3.072284  
     158A      3.121214   159A      3.137122   160A      3.182741  
     161A      3.293452   162A      3.607659   163A      4.549374  
     164A      4.654784   165A      4.749830   166A      4.775679  
     167A      4.859562   168A      4.962159   169A      4.984650  
     170A      5.099791   171A      5.184956  

    Final Occupation by Irrep:
              A 
    DOCC [    37 ]

  Energy converged.

  @DF-RHF Final Energy:  -387.69658992273116

   => Energetics <=

    Nuclear Repulsion Energy =            558.9634102767475952
    One-Electron Energy =               -1634.5166093135953815
    Two-Electron Energy =                 687.8566091141181005
    DFT Exchange-Correlation Energy =       0.0000000000000000
    Empirical Dispersion Energy =           0.0000000000000000
    PCM Polarization Energy =               0.0000000000000000
    EFP Energy =                            0.0000000000000000
    Total Energy =                       -387.6965899227295722

    Alert: EFP and PCM quantities not currently incorporated into SCF psivars.

Properties will be evaluated at   0.000000,   0.000000,   0.000000 Bohr
  ==> Properties <==


Properties computed using the SCF density matrix

  Nuclear Dipole Moment: (a.u.)
     X:     2.9916      Y:    -0.9881      Z:     0.5898

  Electronic Dipole Moment: (a.u.)
     X:    -4.1119      Y:     0.3240      Z:    -0.2569

  Dipole Moment: (a.u.)
     X:    -1.1203      Y:    -0.6641      Z:     0.3330     Total:     1.3443

  Dipole Moment: (Debye)
     X:    -2.8475      Y:    -1.6881      Z:     0.8463     Total:     3.4168


  Saving occupied orbitals to File 180.

*** tstop() called on cx1-3-4-2.cx1.hpc.ic.ac.uk at Tue Jul  5 18:37:55 2016
Module time:
	user time   =      32.06 seconds =       0.53 minutes
	system time =       0.29 seconds =       0.00 minutes
	total time  =         33 seconds =       0.55 minutes
Total time:
	user time   =      32.06 seconds =       0.53 minutes
	system time =       0.29 seconds =       0.00 minutes
	total time  =         33 seconds =       0.55 minutes


Properties will be evaluated at   0.000000,   0.000000,   0.000000 Bohr

Properties computed using the  density matrix

  Nuclear Dipole Moment: (a.u.)
     X:     2.9916      Y:    -0.9881      Z:     0.5898

  Electronic Dipole Moment: (a.u.)
     X:    -4.1119      Y:     0.3240      Z:    -0.2569

  Dipole Moment: (a.u.)
     X:    -1.1203      Y:    -0.6641      Z:     0.3330     Total:     1.3443

  Dipole Moment: (Debye)
     X:    -2.8475      Y:    -1.6881      Z:     0.8463     Total:     3.4168

  Quadrupole Moment: (Debye Ang)
    XX:   -58.1420     YY:   -61.0513     ZZ:   -63.6560
    XY:    -0.4837     XZ:     1.7179     YZ:     1.5214

  Traceless Quadrupole Moment: (Debye Ang)
    XX:     2.8078     YY:    -0.1016     ZZ:    -2.7062
    XY:    -0.4837     XZ:     1.7179     YZ:     1.5214

  Mulliken Charges: (a.u.)
   Center  Symbol    Alpha    Beta     Spin     Total
       1     H     0.33096  0.33096  0.00000  0.33807
       2     O     4.30755  4.30755  0.00000 -0.61509
       3     C     3.04947  3.04947  0.00000 -0.09894
       4     C     3.18163  3.18163  0.00000 -0.36326
       5     H     0.40782  0.40782  0.00000  0.18437
       6     H     0.39473  0.39473  0.00000  0.21055
       7     C     3.15438  3.15438  0.00000 -0.30876
       8     H     0.41334  0.41334  0.00000  0.17331
       9     H     0.39745  0.39745  0.00000  0.20511
      10     C     3.15025  3.15025  0.00000 -0.30049
      11     H     0.41493  0.41493  0.00000  0.17015
      12     H     0.42757  0.42757  0.00000  0.14486
      13     C     3.14775  3.14775  0.00000 -0.29549
      14     H     0.42331  0.42331  0.00000  0.15338
      15     H     0.41672  0.41672  0.00000  0.16656
      16     C     3.00500  3.00500  0.00000 -0.01001
      17     H     0.45537  0.45537  0.00000  0.08927
      18     H     0.43331  0.43331  0.00000  0.13337
      19     C     3.14744  3.14744  0.00000 -0.29489
      20     H     0.44766  0.44766  0.00000  0.10468
      21     H     0.48951  0.48951  0.00000  0.02098
      22     C     3.25504  3.25504  0.00000 -0.51008
      23     H     0.43859  0.43859  0.00000  0.12282
      24     H     0.44105  0.44105  0.00000  0.11789
      25     H     0.43052  0.43052  0.00000  0.13895
      26     H     0.42443  0.42443  0.00000  0.15113
      27     H     0.41422  0.41422  0.00000  0.17157

   Total alpha = 37.00000, Total beta = 37.00000, Total charge = -0.00000


*** PSI4 exiting successfully. Buy a developer a beer!
