    -----------------------------------------------------------------------
          Psi4: An Open-Source Ab Initio Electronic Structure Package
                              Psi4 (no tag) Driver

                          Git: Rev {detached?}  

    J. M. Turney, A. C. Simmonett, R. M. Parrish, E. G. Hohenstein,
    F. A. Evangelista, J. T. Fermann, B. J. Mintz, L. A. Burns, J. J. Wilke,
    M. L. Abrams, N. J. Russ, M. L. Leininger, C. L. Janssen, E. T. Seidl,
    W. D. Allen, H. F. Schaefer, R. A. King, E. F. Valeev, C. D. Sherrill,
    and T. D. Crawford, WIREs Comput. Mol. Sci. 2, 556-565 (2012)
    (doi: 10.1002/wcms.93)

                         Additional Contributions by
    A. E. DePrince, M. Saitow, U. Bozkaya, A. Yu. Sokolov
    -----------------------------------------------------------------------


    Psi4 started on: Tue Jul  5 16:47:51 2016

    Process ID:  29001
    PSI4DATADIR: /export131/home/mjharvey/miniconda3/share
    Memory level set to 256.000 MB

  ==> Input File <==

--------------------------------------------------------------------------
set {
	reference rhf
	basis 6-31G*
}


set_num_threads( 1 )
memory 2 gb

molecule MOL {
0 1

H	 -0.426998	 3.674888	 1.405268
N	 -1.265624	 3.212699	 1.110937
C	 -1.460920	 1.975768	 1.853490
H	 -1.162757	 3.022105	 0.132202
C	 -0.435163	 0.928932	 1.431930
H	 -2.458596	 1.610775	 1.629255
H	 -1.414112	 2.113505	 2.936650
C	 -0.679275	 0.379305	 0.025956
H	 0.554019	 1.373218	 1.494890
H	 -0.450378	 0.107436	 2.147646
C	 -0.791153	 1.473151	 -1.037697
H	 -1.591837	 -0.214897	 0.024303
H	 0.126996	 -0.300826	 -0.244591
C	 -2.115055	 2.234023	 -0.975523
H	 0.033362	 2.173024	 -0.921214
H	 -0.676491	 1.028719	 -2.024099
H	 -2.243718	 2.718807	 -0.011807
H	 -2.163946	 3.002377	 -1.740928
H	 -2.958889	 1.565841	 -1.123406

	symmetry c1
}
set optking {
	frozen_dihedral = ("
		6 3 5 9,
		12 8 5 9,
		12 8 11 15
	")
}

ee = energy('scf')
oeprop('DIPOLE', 'QUADRUPOLE', 'MULLIKEN_CHARGES')
f=open( 'psi4out.xyz', 'w' )
f.write( "19  " )
f.write( str(ee) + "\n" )
f.write( MOL.save_string_xyz() )
f.close()
--------------------------------------------------------------------------

  Memory set to   2.000 GiB by Python script.

*** tstart() called on cx1-3-3-2.cx1.hpc.ic.ac.uk
*** at Tue Jul  5 16:47:51 2016


         ---------------------------------------------------------
                                   SCF
            by Justin Turney, Rob Parrish, and Andy Simmonett
                              RHF Reference
                        1 Threads,   2000 MiB Core
         ---------------------------------------------------------

  ==> Geometry <==

    Molecular point group: c1
    Full point group: C1

    Geometry (in Angstrom), charge = 0, multiplicity = 1:

       Center              X                  Y                   Z               Mass       
    ------------   -----------------  -----------------  -----------------  -----------------
           H          0.703259294526     1.942171143850     1.004973647698     1.007825032070
           N         -0.135366705474     1.479982143850     0.710642647698    14.003074004780
           C         -0.330662705474     0.243051143850     1.453195647698    12.000000000000
           H         -0.032499705474     1.289388143850    -0.268092352302     1.007825032070
           C          0.695094294526    -0.803784856150     1.031635647698    12.000000000000
           H         -1.328338705474    -0.121941856150     1.228960647698     1.007825032070
           H         -0.283854705474     0.380788143850     2.536355647698     1.007825032070
           C          0.450982294526    -1.353411856150    -0.374338352302    12.000000000000
           H          1.684276294526    -0.359498856150     1.094595647698     1.007825032070
           H          0.679879294526    -1.625280856150     1.747351647698     1.007825032070
           C          0.339104294526    -0.259565856150    -1.437991352302    12.000000000000
           H         -0.461579705474    -1.947613856150    -0.375991352302     1.007825032070
           H          1.257253294526    -2.033542856150    -0.644885352302     1.007825032070
           C         -0.984797705474     0.501306143850    -1.375817352302    12.000000000000
           H          1.163619294526     0.440307143850    -1.321508352302     1.007825032070
           H          0.453766294526    -0.703997856150    -2.424393352302     1.007825032070
           H         -1.113460705474     0.986090143850    -0.412101352302     1.007825032070
           H         -1.033688705474     1.269660143850    -2.141222352302     1.007825032070
           H         -1.828631705474    -0.166875856150    -1.523700352302     1.007825032070

  Running in c1 symmetry.

  Rotational constants: A =      0.14171  B =      0.11414  C =      0.07519 [cm^-1]
  Rotational constants: A =   4248.39646  B =   3421.80085  C =   2254.18108 [MHz]
  Nuclear repulsion =  273.613112756172541

  Charge       = 0
  Multiplicity = 1
  Electrons    = 50
  Nalpha       = 25
  Nbeta        = 25

  ==> Algorithm <==

  SCF Algorithm Type is DF.
  DIIS enabled.
  MOM disabled.
  Fractional occupation disabled.
  Guess Type is CORE.
  Energy threshold   = 1.00e-06
  Density threshold  = 1.00e-06
  Integral threshold = 0.00e+00

  ==> Primary Basis <==

  Basis Set: 6-31G*
    Number of shells: 62
    Number of basis function: 116
    Number of Cartesian functions: 116
    Spherical Harmonics?: false
    Max angular momentum: 2

  ==> Pre-Iterations <==

   -------------------------------------------------------
    Irrep   Nso     Nmo     Nalpha   Nbeta   Ndocc  Nsocc
   -------------------------------------------------------
     A        116     116       0       0       0       0
   -------------------------------------------------------
    Total     116     116      25      25      25       0
   -------------------------------------------------------

 OEINTS: Overlap, kinetic, potential, dipole, and quadrupole integrals
         stored in file 35.

  ==> Integral Setup <==

  ==> DFJK: Density-Fitted J/K Matrices <==

    J tasked:                  Yes
    K tasked:                  Yes
    wK tasked:                  No
    OpenMP threads:              1
    Integrals threads:           1
    Memory (MB):              1430
    Algorithm:                Core
    Integral Cache:           NONE
    Schwarz Cutoff:          1E-12
    Fitting Condition:       1E-12

   => Auxiliary Basis Set <=

  Basis Set: 
    Number of shells: 261
    Number of basis function: 811
    Number of Cartesian functions: 811
    Spherical Harmonics?: false
    Max angular momentum: 3

  Minimum eigenvalue in the overlap matrix is 4.4864824750E-03.
  Using Symmetric Orthogonalization.
  SCF Guess: Core (One-Electron) Hamiltonian.

  ==> Iterations <==

                           Total Energy        Delta E     RMS |[F,P]|

   @DF-RHF iter   1:  -196.81951528935400   -1.96820e+02   7.13665e-02 
   @DF-RHF iter   2:  -170.78763901204979    2.60319e+01   6.45326e-02 DIIS
   @DF-RHF iter   3:  -213.43497808395102   -4.26473e+01   4.42265e-02 DIIS
   @DF-RHF iter   4:  -220.42275241511527   -6.98777e+00   5.36079e-02 DIIS
   @DF-RHF iter   5:  -251.03323093665858   -3.06105e+01   5.14091e-03 DIIS
   @DF-RHF iter   6:  -251.20659037591849   -1.73359e-01   2.47587e-03 DIIS
   @DF-RHF iter   7:  -251.24185619886009   -3.52658e-02   9.13686e-04 DIIS
   @DF-RHF iter   8:  -251.24848873460337   -6.63254e-03   3.61194e-04 DIIS
   @DF-RHF iter   9:  -251.24964912419864   -1.16039e-03   1.12271e-04 DIIS
   @DF-RHF iter  10:  -251.24977153503642   -1.22411e-04   2.74355e-05 DIIS
   @DF-RHF iter  11:  -251.24977777172626   -6.23669e-06   9.04309e-06 DIIS
   @DF-RHF iter  12:  -251.24977854114422   -7.69418e-07   3.33978e-06 DIIS
   @DF-RHF iter  13:  -251.24977867035432   -1.29210e-07   5.36407e-07 DIIS

  ==> Post-Iterations <==

    Orbital Energies (a.u.)
    -----------------------

    Doubly Occupied:                                                      

       1A    -15.519980     2A    -11.242982     3A    -11.219857  
       4A    -11.217381     5A    -11.212950     6A    -11.188320  
       7A     -1.206780     8A     -1.069973     9A     -1.018537  
      10A     -0.904276    11A     -0.841437    12A     -0.784513  
      13A     -0.724848    14A     -0.624166    15A     -0.619896  
      16A     -0.589173    17A     -0.574428    18A     -0.551242  
      19A     -0.538535    20A     -0.494892    21A     -0.478471  
      22A     -0.468519    23A     -0.457588    24A     -0.442771  
      25A     -0.370925  

    Virtual:                                                              

      26A      0.229834    27A      0.253497    28A      0.265198  
      29A      0.280083    30A      0.294332    31A      0.306102  
      32A      0.323042    33A      0.335303    34A      0.336448  
      35A      0.341302    36A      0.346223    37A      0.385353  
      38A      0.390020    39A      0.423082    40A      0.445683  
      41A      0.454147    42A      0.483358    43A      0.523266  
      44A      0.709294    45A      0.730877    46A      0.735809  
      47A      0.754860    48A      0.788362    49A      0.805238  
      50A      0.883916    51A      0.906574    52A      0.924909  
      53A      0.944895    54A      0.982124    55A      0.990832  
      56A      1.014544    57A      1.037803    58A      1.091142  
      59A      1.124724    60A      1.131800    61A      1.145980  
      62A      1.162667    63A      1.177847    64A      1.180709  
      65A      1.204024    66A      1.222005    67A      1.233407  
      68A      1.240866    69A      1.253502    70A      1.262711  
      71A      1.282062    72A      1.297211    73A      1.306324  
      74A      1.396266    75A      1.454883    76A      1.531272  
      77A      1.654784    78A      1.731049    79A      1.772965  
      80A      1.812648    81A      1.841839    82A      1.892928  
      83A      1.922714    84A      1.992869    85A      2.078150  
      86A      2.143644    87A      2.213156    88A      2.229089  
      89A      2.245653    90A      2.266467    91A      2.307402  
      92A      2.360898    93A      2.408599    94A      2.418170  
      95A      2.445470    96A      2.510468    97A      2.570456  
      98A      2.619927    99A      2.671975   100A      2.711164  
     101A      2.755357   102A      2.775818   103A      2.795419  
     104A      2.837659   105A      2.912653   106A      2.960750  
     107A      2.998061   108A      3.006521   109A      3.094113  
     110A      3.126711   111A      4.365180   112A      4.588658  
     113A      4.722141   114A      4.799633   115A      4.946202  
     116A      4.995014  

    Final Occupation by Irrep:
              A 
    DOCC [    25 ]

  Energy converged.

  @DF-RHF Final Energy:  -251.24977867035432

   => Energetics <=

    Nuclear Repulsion Energy =            273.6131127561725407
    One-Electron Energy =                -881.0007815206261057
    Two-Electron Energy =                 356.1378900940984522
    DFT Exchange-Correlation Energy =       0.0000000000000000
    Empirical Dispersion Energy =           0.0000000000000000
    PCM Polarization Energy =               0.0000000000000000
    EFP Energy =                            0.0000000000000000
    Total Energy =                       -251.2497786703551128

    Alert: EFP and PCM quantities not currently incorporated into SCF psivars.

Properties will be evaluated at   0.000000,   0.000000,   0.000000 Bohr
  ==> Properties <==


Properties computed using the SCF density matrix

  Nuclear Dipole Moment: (a.u.)
     X:    -0.1309      Y:    -0.6140      Z:    -1.4079

  Electronic Dipole Moment: (a.u.)
     X:     0.6160      Y:     0.2707      Z:     1.3966

  Dipole Moment: (a.u.)
     X:     0.4851      Y:    -0.3433      Z:    -0.0114     Total:     0.5944

  Dipole Moment: (Debye)
     X:     1.2331      Y:    -0.8725      Z:    -0.0289     Total:     1.5108


  Saving occupied orbitals to File 180.

*** tstop() called on cx1-3-3-2.cx1.hpc.ic.ac.uk at Tue Jul  5 16:48:00 2016
Module time:
	user time   =       8.72 seconds =       0.15 minutes
	system time =       0.04 seconds =       0.00 minutes
	total time  =          9 seconds =       0.15 minutes
Total time:
	user time   =       8.72 seconds =       0.15 minutes
	system time =       0.04 seconds =       0.00 minutes
	total time  =          9 seconds =       0.15 minutes


Properties will be evaluated at   0.000000,   0.000000,   0.000000 Bohr

Properties computed using the  density matrix

  Nuclear Dipole Moment: (a.u.)
     X:    -0.1309      Y:    -0.6140      Z:    -1.4079

  Electronic Dipole Moment: (a.u.)
     X:     0.6160      Y:     0.2707      Z:     1.3966

  Dipole Moment: (a.u.)
     X:     0.4851      Y:    -0.3433      Z:    -0.0114     Total:     0.5944

  Dipole Moment: (Debye)
     X:     1.2331      Y:    -0.8725      Z:    -0.0289     Total:     1.5108

  Quadrupole Moment: (Debye Ang)
    XX:   -41.4543     YY:   -43.4342     ZZ:   -40.4225
    XY:     3.2947     XZ:     0.5158     YZ:    -1.1588

  Traceless Quadrupole Moment: (Debye Ang)
    XX:     0.3160     YY:    -1.6638     ZZ:     1.3478
    XY:     3.2947     XZ:     0.5158     YZ:    -1.1588

  Mulliken Charges: (a.u.)
   Center  Symbol    Alpha    Beta     Spin     Total
       1     H     0.33600  0.33600  0.00000  0.32800
       2     N     3.95365  3.95365  0.00000 -0.90729
       3     C     3.08494  3.08494  0.00000 -0.16988
       4     H     0.28970  0.28970  0.00000  0.42060
       5     C     3.15525  3.15525  0.00000 -0.31051
       6     H     0.41418  0.41418  0.00000  0.17164
       7     H     0.41150  0.41150  0.00000  0.17701
       8     C     3.14919  3.14919  0.00000 -0.29837
       9     H     0.42567  0.42567  0.00000  0.14866
      10     H     0.42276  0.42276  0.00000  0.15448
      11     C     3.18634  3.18634  0.00000 -0.37269
      12     H     0.42069  0.42069  0.00000  0.15861
      13     H     0.41843  0.41843  0.00000  0.16314
      14     C     3.30905  3.30905  0.00000 -0.61810
      15     H     0.41887  0.41887  0.00000  0.16225
      16     H     0.41234  0.41234  0.00000  0.17532
      17     H     0.35807  0.35807  0.00000  0.28386
      18     H     0.41543  0.41543  0.00000  0.16914
      19     H     0.41794  0.41794  0.00000  0.16413

   Total alpha = 25.00000, Total beta = 25.00000, Total charge =  0.00000


*** PSI4 exiting successfully. Buy a developer a beer!
