    -----------------------------------------------------------------------
          Psi4: An Open-Source Ab Initio Electronic Structure Package
                              Psi4 (no tag) Driver

                          Git: Rev {detached?}  

    J. M. Turney, A. C. Simmonett, R. M. Parrish, E. G. Hohenstein,
    F. A. Evangelista, J. T. Fermann, B. J. Mintz, L. A. Burns, J. J. Wilke,
    M. L. Abrams, N. J. Russ, M. L. Leininger, C. L. Janssen, E. T. Seidl,
    W. D. Allen, H. F. Schaefer, R. A. King, E. F. Valeev, C. D. Sherrill,
    and T. D. Crawford, WIREs Comput. Mol. Sci. 2, 556-565 (2012)
    (doi: 10.1002/wcms.93)

                         Additional Contributions by
    A. E. DePrince, M. Saitow, U. Bozkaya, A. Yu. Sokolov
    -----------------------------------------------------------------------


    Psi4 started on: Tue Jul  5 17:31:36 2016

    Process ID:  31074
    PSI4DATADIR: /export131/home/mjharvey/miniconda3/share
    Memory level set to 256.000 MB

  ==> Input File <==

--------------------------------------------------------------------------
set {
	reference rhf
	basis 6-31G*
}


set_num_threads( 1 )
memory 2 gb

molecule MOL {
0 1

H	 -4.372233	 0.491658	 -1.051670
O	 -3.452007	 0.283848	 -0.965577
C	 -3.181085	 -0.079926	 0.364119
C	 -1.765924	 0.277073	 0.805136
H	 -3.327791	 -1.152017	 0.410903
H	 -3.905698	 0.375695	 1.036898
C	 -0.677594	 -0.417312	 -0.014550
H	 -1.637766	 1.358238	 0.744969
H	 -1.659588	 0.017670	 1.857098
C	 -0.636515	 -1.931365	 0.202556
H	 0.286690	 0.014981	 0.234427
H	 -0.841928	 -0.208639	 -1.070411
C	 -2.019340	 -2.581843	 0.108972
H	 0.033343	 -2.375569	 -0.529832
H	 -0.205609	 -2.145527	 1.179827
C	 -2.989335	 -2.191157	 1.229968
H	 -1.906995	 -3.664819	 0.093554
H	 -2.467408	 -2.310741	 -0.844734
C	 -4.440244	 -2.613419	 0.991300
H	 -2.956848	 -1.111227	 1.352388
H	 -2.640555	 -2.612933	 2.170532
H	 -4.812308	 -2.216149	 0.050617
H	 -5.084614	 -2.243392	 1.782947
H	 -4.549920	 -3.692415	 0.961242

	symmetry c1
}
set optking {
	frozen_dihedral = ("
		20 16 13 17,
		17 13 10 7,
		13 10 7 11,
		11 7 4 3,
		7 4 3 2
	")
}

ee = energy('scf')
oeprop('DIPOLE', 'QUADRUPOLE', 'MULLIKEN_CHARGES')
f=open( 'psi4out.xyz', 'w' )
f.write( "24  " )
f.write( str(ee) + "\n" )
f.write( MOL.save_string_xyz() )
f.close()
--------------------------------------------------------------------------

  Memory set to   2.000 GiB by Python script.

*** tstart() called on cx1-1-3-2.cx1.hpc.ic.ac.uk
*** at Tue Jul  5 17:31:36 2016


         ---------------------------------------------------------
                                   SCF
            by Justin Turney, Rob Parrish, and Andy Simmonett
                              RHF Reference
                        1 Threads,   2000 MiB Core
         ---------------------------------------------------------

  ==> Geometry <==

    Molecular point group: c1
    Full point group: C1

    Geometry (in Angstrom), charge = 0, multiplicity = 1:

       Center              X                  Y                   Z               Mass       
    ------------   -----------------  -----------------  -----------------  -----------------
           H         -1.925649000320     1.624609800331    -1.372458601617     1.007825032070
           O         -1.005423000320     1.416799800331    -1.286365601617    15.994914619560
           C         -0.734501000320     1.053025800331     0.043330398383    12.000000000000
           C          0.680659999680     1.410024800331     0.484347398383    12.000000000000
           H         -0.881207000320    -0.019065199669     0.090114398383     1.007825032070
           H         -1.459114000320     1.508646800331     0.716109398383     1.007825032070
           C          1.768989999680     0.715639800331    -0.335338601617    12.000000000000
           H          0.808817999680     2.491189800331     0.424180398383     1.007825032070
           H          0.786995999680     1.150621800331     1.536309398383     1.007825032070
           C          1.810068999680    -0.798413199669    -0.118232601617    12.000000000000
           H          2.733273999680     1.147932800331    -0.086361601617     1.007825032070
           H          1.604655999680     0.924312800331    -1.391199601617     1.007825032070
           C          0.427243999680    -1.448891199669    -0.211816601617    12.000000000000
           H          2.479926999680    -1.242617199669    -0.850620601617     1.007825032070
           H          2.240974999680    -1.012575199669     0.859038398383     1.007825032070
           C         -0.542751000320    -1.058205199669     0.909179398383    12.000000000000
           H          0.539588999680    -2.531867199669    -0.227234601617     1.007825032070
           H         -0.020824000320    -1.177789199669    -1.165522601617     1.007825032070
           C         -1.993660000320    -1.480467199669     0.670511398383    12.000000000000
           H         -0.510264000320     0.021724800331     1.031599398383     1.007825032070
           H         -0.193971000320    -1.479981199669     1.849743398383     1.007825032070
           H         -2.365724000320    -1.083197199669    -0.270171601617     1.007825032070
           H         -2.638030000320    -1.110440199669     1.462158398383     1.007825032070
           H         -2.103336000320    -2.559463199669     0.640453398383     1.007825032070

  Running in c1 symmetry.

  Rotational constants: A =      0.07378  B =      0.06165  C =      0.04159 [cm^-1]
  Rotational constants: A =   2211.81317  B =   1848.31099  C =   1246.87699 [MHz]
  Nuclear repulsion =  436.004440964625815

  Charge       = 0
  Multiplicity = 1
  Electrons    = 66
  Nalpha       = 33
  Nbeta        = 33

  ==> Algorithm <==

  SCF Algorithm Type is DF.
  DIIS enabled.
  MOM disabled.
  Fractional occupation disabled.
  Guess Type is CORE.
  Energy threshold   = 1.00e-06
  Density threshold  = 1.00e-06
  Integral threshold = 0.00e+00

  ==> Primary Basis <==

  Basis Set: 6-31G*
    Number of shells: 80
    Number of basis function: 152
    Number of Cartesian functions: 152
    Spherical Harmonics?: false
    Max angular momentum: 2

  ==> Pre-Iterations <==

   -------------------------------------------------------
    Irrep   Nso     Nmo     Nalpha   Nbeta   Ndocc  Nsocc
   -------------------------------------------------------
     A        152     152       0       0       0       0
   -------------------------------------------------------
    Total     152     152      33      33      33       0
   -------------------------------------------------------

 OEINTS: Overlap, kinetic, potential, dipole, and quadrupole integrals
         stored in file 35.

  ==> Integral Setup <==

  ==> DFJK: Density-Fitted J/K Matrices <==

    J tasked:                  Yes
    K tasked:                  Yes
    wK tasked:                  No
    OpenMP threads:              1
    Integrals threads:           1
    Memory (MB):              1430
    Algorithm:                Core
    Integral Cache:           NONE
    Schwarz Cutoff:          1E-12
    Fitting Condition:       1E-12

   => Auxiliary Basis Set <=

  Basis Set: 
    Number of shells: 336
    Number of basis function: 1048
    Number of Cartesian functions: 1048
    Spherical Harmonics?: false
    Max angular momentum: 3

  Minimum eigenvalue in the overlap matrix is 2.2557004152E-03.
  Using Symmetric Orthogonalization.
  SCF Guess: Core (One-Electron) Hamiltonian.

  ==> Iterations <==

                           Total Energy        Delta E     RMS |[F,P]|

   @DF-RHF iter   1:  -268.89663654047479   -2.68897e+02   6.45005e-02 
   @DF-RHF iter   2:  -199.64059933258613    6.92560e+01   6.17283e-02 DIIS
   @DF-RHF iter   3:  -295.47724937633291   -9.58367e+01   4.40967e-02 DIIS
   @DF-RHF iter   4:  -287.92263190503866    7.55462e+00   6.04673e-02 DIIS
   @DF-RHF iter   5:  -348.44863589445220   -6.05260e+01   6.70226e-03 DIIS
   @DF-RHF iter   6:  -348.94360576593670   -4.94970e-01   2.60577e-03 DIIS
   @DF-RHF iter   7:  -349.01840922754275   -7.48035e-02   8.46362e-04 DIIS
   @DF-RHF iter   8:  -349.02792210606128   -9.51288e-03   2.06774e-04 DIIS
   @DF-RHF iter   9:  -349.02881510510690   -8.92999e-04   7.37512e-05 DIIS
   @DF-RHF iter  10:  -349.02889720131816   -8.20962e-05   2.64140e-05 DIIS
   @DF-RHF iter  11:  -349.02891344288673   -1.62416e-05   9.23892e-06 DIIS
   @DF-RHF iter  12:  -349.02891532684384   -1.88396e-06   2.25402e-06 DIIS
   @DF-RHF iter  13:  -349.02891546451599   -1.37672e-07   5.92994e-07 DIIS

  ==> Post-Iterations <==

    Orbital Energies (a.u.)
    -----------------------

    Doubly Occupied:                                                      

       1A    -20.535748     2A    -11.234768     3A    -11.215423  
       4A    -11.215203     5A    -11.212943     6A    -11.211779  
       7A    -11.208578     8A    -11.197065     9A     -1.347510  
      10A     -1.139631    11A     -1.046223    12A     -1.013368  
      13A     -0.931699    14A     -0.845666    15A     -0.826584  
      16A     -0.770046    17A     -0.712713    18A     -0.680264  
      19A     -0.619205    20A     -0.610315    21A     -0.580998  
      22A     -0.566673    23A     -0.561824    24A     -0.548365  
      25A     -0.525555    26A     -0.523797    27A     -0.487097  
      28A     -0.481771    29A     -0.472582    30A     -0.453102  
      31A     -0.439736    32A     -0.436660    33A     -0.341369  

    Virtual:                                                              

      34A      0.211661    35A      0.247202    36A      0.258036  
      37A      0.264957    38A      0.276271    39A      0.305855  
      40A      0.312543    41A      0.322837    42A      0.325713  
      43A      0.326793    44A      0.340442    45A      0.345450  
      46A      0.347775    47A      0.361463    48A      0.365343  
      49A      0.383836    50A      0.422382    51A      0.433971  
      52A      0.437736    53A      0.465852    54A      0.478596  
      55A      0.548530    56A      0.592718    57A      0.677831  
      58A      0.710527    59A      0.730759    60A      0.758056  
      61A      0.765206    62A      0.784110    63A      0.795172  
      64A      0.885289    65A      0.889381    66A      0.913159  
      67A      0.931289    68A      0.954122    69A      0.973933  
      70A      0.996754    71A      1.015599    72A      1.053613  
      73A      1.074345    74A      1.086994    75A      1.112668  
      76A      1.125224    77A      1.148242    78A      1.150244  
      79A      1.162241    80A      1.165769    81A      1.176757  
      82A      1.185113    83A      1.197198    84A      1.211187  
      85A      1.215055    86A      1.223175    87A      1.236801  
      88A      1.243898    89A      1.260367    90A      1.262539  
      91A      1.289900    92A      1.318855    93A      1.351676  
      94A      1.365379    95A      1.413520    96A      1.461156  
      97A      1.524379    98A      1.567867    99A      1.625243  
     100A      1.737348   101A      1.775315   102A      1.791017  
     103A      1.806467   104A      1.836163   105A      1.863680  
     106A      1.872794   107A      1.953260   108A      2.023207  
     109A      2.043194   110A      2.095619   111A      2.117682  
     112A      2.167578   113A      2.204766   114A      2.229263  
     115A      2.247603   116A      2.272533   117A      2.287474  
     118A      2.302591   119A      2.344657   120A      2.360561  
     121A      2.379106   122A      2.433831   123A      2.484188  
     124A      2.516125   125A      2.570317   126A      2.615750  
     127A      2.628446   128A      2.648622   129A      2.674198  
     130A      2.699385   131A      2.719406   132A      2.742528  
     133A      2.766995   134A      2.806011   135A      2.823138  
     136A      2.889151   137A      2.950302   138A      2.986950  
     139A      3.001941   140A      3.044744   141A      3.081497  
     142A      3.129261   143A      3.142626   144A      3.322434  
     145A      4.280029   146A      4.584112   147A      4.681935  
     148A      4.764178   149A      4.842839   150A      4.934394  
     151A      5.040464   152A      5.110026  

    Final Occupation by Irrep:
              A 
    DOCC [    33 ]

  Energy converged.

  @DF-RHF Final Energy:  -349.02891546451599

   => Energetics <=

    Nuclear Repulsion Energy =            436.0044409646258146
    One-Electron Energy =               -1338.0779734698924130
    Two-Electron Energy =                 553.0446170407507225
    DFT Exchange-Correlation Energy =       0.0000000000000000
    Empirical Dispersion Energy =           0.0000000000000000
    PCM Polarization Energy =               0.0000000000000000
    EFP Energy =                            0.0000000000000000
    Total Energy =                       -349.0289154645158760

    Alert: EFP and PCM quantities not currently incorporated into SCF psivars.

Properties will be evaluated at   0.000000,   0.000000,   0.000000 Bohr
  ==> Properties <==


Properties computed using the SCF density matrix

  Nuclear Dipole Moment: (a.u.)
     X:    -0.8522      Y:    -3.1318      Z:     3.0370

  Electronic Dipole Moment: (a.u.)
     X:     0.4462      Y:     3.0885      Z:    -2.5915

  Dipole Moment: (a.u.)
     X:    -0.4060      Y:    -0.0433      Z:     0.4455     Total:     0.6043

  Dipole Moment: (Debye)
     X:    -1.0319      Y:    -0.1100      Z:     1.1324     Total:     1.5360


  Saving occupied orbitals to File 180.

*** tstop() called on cx1-1-3-2.cx1.hpc.ic.ac.uk at Tue Jul  5 17:31:58 2016
Module time:
	user time   =      21.63 seconds =       0.36 minutes
	system time =       0.21 seconds =       0.00 minutes
	total time  =         22 seconds =       0.37 minutes
Total time:
	user time   =      21.63 seconds =       0.36 minutes
	system time =       0.21 seconds =       0.00 minutes
	total time  =         22 seconds =       0.37 minutes


Properties will be evaluated at   0.000000,   0.000000,   0.000000 Bohr

Properties computed using the  density matrix

  Nuclear Dipole Moment: (a.u.)
     X:    -0.8522      Y:    -3.1318      Z:     3.0370

  Electronic Dipole Moment: (a.u.)
     X:     0.4462      Y:     3.0885      Z:    -2.5915

  Dipole Moment: (a.u.)
     X:    -0.4060      Y:    -0.0433      Z:     0.4455     Total:     0.6043

  Dipole Moment: (Debye)
     X:    -1.0319      Y:    -0.1100      Z:     1.1324     Total:     1.5360

  Quadrupole Moment: (Debye Ang)
    XX:   -49.0320     YY:   -53.7389     ZZ:   -56.2193
    XY:    -1.9132     XZ:     0.5514     YZ:     2.3348

  Traceless Quadrupole Moment: (Debye Ang)
    XX:     3.9647     YY:    -0.7421     ZZ:    -3.2226
    XY:    -1.9132     XZ:     0.5514     YZ:     2.3348

  Mulliken Charges: (a.u.)
   Center  Symbol    Alpha    Beta     Spin     Total
       1     H     0.28416  0.28416  0.00000  0.43168
       2     O     4.38460  4.38460  0.00000 -0.76920
       3     C     3.04051  3.04051  0.00000 -0.08102
       4     C     3.19240  3.19240  0.00000 -0.38480
       5     H     0.38048  0.38048  0.00000  0.23904
       6     H     0.42454  0.42454  0.00000  0.15093
       7     C     3.15345  3.15345  0.00000 -0.30691
       8     H     0.40840  0.40840  0.00000  0.18320
       9     H     0.40905  0.40905  0.00000  0.18190
      10     C     3.15015  3.15015  0.00000 -0.30030
      11     H     0.42016  0.42016  0.00000  0.15968
      12     H     0.40662  0.40662  0.00000  0.18676
      13     C     3.17692  3.17692  0.00000 -0.35383
      14     H     0.41825  0.41825  0.00000  0.16350
      15     H     0.42414  0.42414  0.00000  0.15172
      16     C     3.21742  3.21742  0.00000 -0.43484
      17     H     0.41378  0.41378  0.00000  0.17244
      18     H     0.40470  0.40470  0.00000  0.19061
      19     C     3.24958  3.24958  0.00000 -0.49916
      20     H     0.37693  0.37693  0.00000  0.24613
      21     H     0.42262  0.42262  0.00000  0.15475
      22     H     0.41306  0.41306  0.00000  0.17388
      23     H     0.41629  0.41629  0.00000  0.16742
      24     H     0.41178  0.41178  0.00000  0.17643

   Total alpha = 33.00000, Total beta = 33.00000, Total charge = -0.00000


*** PSI4 exiting successfully. Buy a developer a beer!
