    -----------------------------------------------------------------------
          Psi4: An Open-Source Ab Initio Electronic Structure Package
                              Psi4 (no tag) Driver

                          Git: Rev {detached?}  

    J. M. Turney, A. C. Simmonett, R. M. Parrish, E. G. Hohenstein,
    F. A. Evangelista, J. T. Fermann, B. J. Mintz, L. A. Burns, J. J. Wilke,
    M. L. Abrams, N. J. Russ, M. L. Leininger, C. L. Janssen, E. T. Seidl,
    W. D. Allen, H. F. Schaefer, R. A. King, E. F. Valeev, C. D. Sherrill,
    and T. D. Crawford, WIREs Comput. Mol. Sci. 2, 556-565 (2012)
    (doi: 10.1002/wcms.93)

                         Additional Contributions by
    A. E. DePrince, M. Saitow, U. Bozkaya, A. Yu. Sokolov
    -----------------------------------------------------------------------


    Psi4 started on: Tue Jul  5 16:27:17 2016

    Process ID:   5152
    PSI4DATADIR: /export131/home/mjharvey/miniconda3/share
    Memory level set to 256.000 MB

  ==> Input File <==

--------------------------------------------------------------------------
set {
	reference rhf
	basis 6-31G*
}


set_num_threads( 1 )
memory 2 gb

molecule MOL {
0 1

H	 -0.024935	 2.599320	 -0.008573
C	 0.857781	 1.958153	 -0.010564
N	 0.538815	 0.649616	 0.000000
O	 1.965626	 2.407351	 -0.021078
C	 1.521968	 -0.411503	 0.000000
H	 -0.425569	 0.408409	 0.008195
H	 2.150599	 -0.357004	 -0.881901
H	 0.999455	 -1.354525	 0.000000
H	 2.150599	 -0.357004	 0.881901

	symmetry c1
}
set optking {
	frozen_dihedral = ("
		1 2 3 6
	")
}

ee = energy('scf')
oeprop('DIPOLE', 'QUADRUPOLE', 'MULLIKEN_CHARGES')
f=open( 'psi4out.xyz', 'w' )
f.write( "9  " )
f.write( str(ee) + "\n" )
f.write( MOL.save_string_xyz() )
f.close()
--------------------------------------------------------------------------

  Memory set to   2.000 GiB by Python script.

*** tstart() called on cx1-1-4-3.cx1.hpc.ic.ac.uk
*** at Tue Jul  5 16:27:17 2016


         ---------------------------------------------------------
                                   SCF
            by Justin Turney, Rob Parrish, and Andy Simmonett
                              RHF Reference
                        1 Threads,   2000 MiB Core
         ---------------------------------------------------------

  ==> Geometry <==

    Molecular point group: c1
    Full point group: C1

    Geometry (in Angstrom), charge = 0, multiplicity = 1:

       Center              X                  Y                   Z               Mass       
    ------------   -----------------  -----------------  -----------------  -----------------
           H         -1.251793348792     1.462605557784    -0.000708628955     1.007825032070
           C         -0.369077348792     0.821438557784    -0.002699628955    12.000000000000
           N         -0.688043348792    -0.487098442216     0.007864371045    14.003074004780
           O          0.738767651208     1.270636557784    -0.013213628955    15.994914619560
           C          0.295109651208    -1.548217442216     0.007864371045    12.000000000000
           H         -1.652427348792    -0.728305442216     0.016059371045     1.007825032070
           H          0.923740651208    -1.493718442216    -0.874036628955     1.007825032070
           H         -0.227403348792    -2.491239442216     0.007864371045     1.007825032070
           H          0.923740651208    -1.493718442216     0.889765371045     1.007825032070

  Running in c1 symmetry.

  Rotational constants: A =      0.68398  B =      0.20537  C =      0.16272 [cm^-1]
  Rotational constants: A =  20505.32179  B =   6156.72045  C =   4878.33370 [MHz]
  Nuclear repulsion =  122.325404784201467

  Charge       = 0
  Multiplicity = 1
  Electrons    = 32
  Nalpha       = 16
  Nbeta        = 16

  ==> Algorithm <==

  SCF Algorithm Type is DF.
  DIIS enabled.
  MOM disabled.
  Fractional occupation disabled.
  Guess Type is CORE.
  Energy threshold   = 1.00e-06
  Density threshold  = 1.00e-06
  Integral threshold = 0.00e+00

  ==> Primary Basis <==

  Basis Set: 6-31G*
    Number of shells: 34
    Number of basis function: 70
    Number of Cartesian functions: 70
    Spherical Harmonics?: false
    Max angular momentum: 2

  ==> Pre-Iterations <==

   -------------------------------------------------------
    Irrep   Nso     Nmo     Nalpha   Nbeta   Ndocc  Nsocc
   -------------------------------------------------------
     A         70      70       0       0       0       0
   -------------------------------------------------------
    Total      70      70      16      16      16       0
   -------------------------------------------------------

 OEINTS: Overlap, kinetic, potential, dipole, and quadrupole integrals
         stored in file 35.

  ==> Integral Setup <==

  ==> DFJK: Density-Fitted J/K Matrices <==

    J tasked:                  Yes
    K tasked:                  Yes
    wK tasked:                  No
    OpenMP threads:              1
    Integrals threads:           1
    Memory (MB):              1430
    Algorithm:                Core
    Integral Cache:           NONE
    Schwarz Cutoff:          1E-12
    Fitting Condition:       1E-12

   => Auxiliary Basis Set <=

  Basis Set: 
    Number of shells: 141
    Number of basis function: 449
    Number of Cartesian functions: 449
    Spherical Harmonics?: false
    Max angular momentum: 3

  Minimum eigenvalue in the overlap matrix is 4.5320183060E-03.
  Using Symmetric Orthogonalization.
  SCF Guess: Core (One-Electron) Hamiltonian.

  ==> Iterations <==

                           Total Energy        Delta E     RMS |[F,P]|

   @DF-RHF iter   1:  -166.85745096152954   -1.66857e+02   9.45892e-02 
   @DF-RHF iter   2:  -133.51129238375512    3.33462e+01   9.21832e-02 DIIS
   @DF-RHF iter   3:  -192.26667191810662   -5.87554e+01   4.59914e-02 DIIS
   @DF-RHF iter   4:  -185.31353215516327    6.95314e+00   6.44425e-02 DIIS
   @DF-RHF iter   5:  -207.49532829215451   -2.21818e+01   1.43490e-02 DIIS
   @DF-RHF iter   6:  -207.82405131892619   -3.28723e-01   8.61656e-03 DIIS
   @DF-RHF iter   7:  -207.95650899031574   -1.32458e-01   1.16939e-03 DIIS
   @DF-RHF iter   8:  -207.95999542090289   -3.48643e-03   5.02670e-04 DIIS
   @DF-RHF iter   9:  -207.96062463154800   -6.29211e-04   2.39267e-04 DIIS
   @DF-RHF iter  10:  -207.96080936439722   -1.84733e-04   7.02298e-05 DIIS
   @DF-RHF iter  11:  -207.96082732007079   -1.79557e-05   2.09695e-05 DIIS
   @DF-RHF iter  12:  -207.96082929180380   -1.97173e-06   4.82375e-06 DIIS
   @DF-RHF iter  13:  -207.96082950699957   -2.15196e-07   2.41423e-06 DIIS
   @DF-RHF iter  14:  -207.96082953960575   -3.26062e-08   5.88021e-07 DIIS

  ==> Post-Iterations <==

    Orbital Energies (a.u.)
    -----------------------

    Doubly Occupied:                                                      

       1A    -20.526300     2A    -15.590773     3A    -11.342927  
       4A    -11.262777     5A     -1.388394     6A     -1.236676  
       7A     -0.969663     8A     -0.806875     9A     -0.746010  
      10A     -0.641121    11A     -0.627002    12A     -0.593652  
      13A     -0.559477    14A     -0.533136    15A     -0.423045  
      16A     -0.391331  

    Virtual:                                                              

      17A      0.209701    18A      0.216914    19A      0.262438  
      20A      0.297552    21A      0.318963    22A      0.337258  
      23A      0.388251    24A      0.442692    25A      0.569879  
      26A      0.716611    27A      0.735983    28A      0.772408  
      29A      0.790620    30A      0.834059    31A      0.955370  
      32A      1.018105    33A      1.048774    34A      1.052653  
      35A      1.101164    36A      1.129497    37A      1.131482  
      38A      1.192241    39A      1.199457    40A      1.218451  
      41A      1.323099    42A      1.323872    43A      1.382237  
      44A      1.576010    45A      1.624548    46A      1.641659  
      47A      1.684798    48A      1.820349    49A      1.852503  
      50A      2.052506    51A      2.147187    52A      2.188705  
      53A      2.240566    54A      2.337993    55A      2.366802  
      56A      2.422808    57A      2.529586    58A      2.547075  
      59A      2.699658    60A      2.723124    61A      2.852222  
      62A      2.921577    63A      3.045241    64A      3.116545  
      65A      3.330147    66A      3.492588    67A      4.236035  
      68A      4.401084    69A      4.584477    70A      4.743462  

    Final Occupation by Irrep:
              A 
    DOCC [    16 ]

  Energy converged.

  @DF-RHF Final Energy:  -207.96082953960575

   => Energetics <=

    Nuclear Repulsion Energy =            122.3254047842014671
    One-Electron Energy =                -525.2942051656349349
    Two-Electron Energy =                 195.0079708418278415
    DFT Exchange-Correlation Energy =       0.0000000000000000
    Empirical Dispersion Energy =           0.0000000000000000
    PCM Polarization Energy =               0.0000000000000000
    EFP Energy =                            0.0000000000000000
    Total Energy =                       -207.9608295396056405

    Alert: EFP and PCM quantities not currently incorporated into SCF psivars.

Properties will be evaluated at   0.000000,   0.000000,   0.000000 Bohr
  ==> Properties <==


Properties computed using the SCF density matrix

  Nuclear Dipole Moment: (a.u.)
     X:    -1.1983      Y:    -4.4402      Z:     0.0364

  Electronic Dipole Moment: (a.u.)
     X:    -0.0568      Y:     3.3766      Z:    -0.0217

  Dipole Moment: (a.u.)
     X:    -1.2550      Y:    -1.0636      Z:     0.0148     Total:     1.6452

  Dipole Moment: (Debye)
     X:    -3.1900      Y:    -2.7034      Z:     0.0375     Total:     4.1816


  Saving occupied orbitals to File 180.

*** tstop() called on cx1-1-4-3.cx1.hpc.ic.ac.uk at Tue Jul  5 16:27:21 2016
Module time:
	user time   =       3.60 seconds =       0.06 minutes
	system time =       0.03 seconds =       0.00 minutes
	total time  =          4 seconds =       0.07 minutes
Total time:
	user time   =       3.60 seconds =       0.06 minutes
	system time =       0.03 seconds =       0.00 minutes
	total time  =          4 seconds =       0.07 minutes


Properties will be evaluated at   0.000000,   0.000000,   0.000000 Bohr

Properties computed using the  density matrix

  Nuclear Dipole Moment: (a.u.)
     X:    -1.1983      Y:    -4.4402      Z:     0.0364

  Electronic Dipole Moment: (a.u.)
     X:    -0.0568      Y:     3.3766      Z:    -0.0217

  Dipole Moment: (a.u.)
     X:    -1.2550      Y:    -1.0636      Z:     0.0148     Total:     1.6452

  Dipole Moment: (Debye)
     X:    -3.1900      Y:    -2.7034      Z:     0.0375     Total:     4.1816

  Quadrupole Moment: (Debye Ang)
    XX:   -22.5259     YY:   -24.4532     ZZ:   -24.6371
    XY:    -3.0025     XZ:     0.0018     YZ:     0.0231

  Traceless Quadrupole Moment: (Debye Ang)
    XX:     1.3462     YY:    -0.5811     ZZ:    -0.7650
    XY:    -3.0025     XZ:     0.0018     YZ:     0.0231

  Mulliken Charges: (a.u.)
   Center  Symbol    Alpha    Beta     Spin     Total
       1     H     0.42843  0.42843  0.00000  0.14313
       2     C     2.74624  2.74624  0.00000  0.50753
       3     N     3.87645  3.87645  0.00000 -0.75290
       4     O     4.28228  4.28228  0.00000 -0.56456
       5     C     3.13484  3.13484  0.00000 -0.26968
       6     H     0.30760  0.30760  0.00000  0.38481
       7     H     0.40420  0.40420  0.00000  0.19160
       8     H     0.41543  0.41543  0.00000  0.16914
       9     H     0.40454  0.40454  0.00000  0.19093

   Total alpha = 16.00000, Total beta = 16.00000, Total charge = -0.00000


*** PSI4 exiting successfully. Buy a developer a beer!
