    -----------------------------------------------------------------------
          Psi4: An Open-Source Ab Initio Electronic Structure Package
                              Psi4 (no tag) Driver

                          Git: Rev {detached?}  

    J. M. Turney, A. C. Simmonett, R. M. Parrish, E. G. Hohenstein,
    F. A. Evangelista, J. T. Fermann, B. J. Mintz, L. A. Burns, J. J. Wilke,
    M. L. Abrams, N. J. Russ, M. L. Leininger, C. L. Janssen, E. T. Seidl,
    W. D. Allen, H. F. Schaefer, R. A. King, E. F. Valeev, C. D. Sherrill,
    and T. D. Crawford, WIREs Comput. Mol. Sci. 2, 556-565 (2012)
    (doi: 10.1002/wcms.93)

                         Additional Contributions by
    A. E. DePrince, M. Saitow, U. Bozkaya, A. Yu. Sokolov
    -----------------------------------------------------------------------


    Psi4 started on: Tue Jul  5 16:34:20 2016

    Process ID:  22342
    PSI4DATADIR: /export131/home/mjharvey/miniconda3/share
    Memory level set to 256.000 MB

  ==> Input File <==

--------------------------------------------------------------------------
set {
	reference rhf
	basis 6-31G*
}


set_num_threads( 1 )
memory 2 gb

molecule MOL {
0 1

H	 -2.698709	 -0.000305	 0.034435
C	 -1.693833	 0.000034	 0.434417
O	 -0.828952	 -0.000968	 -0.659236
H	 -1.574200	 0.882896	 1.055746
H	 -1.574147	 -0.881698	 1.057355
C	 0.559449	 -0.000018	 -0.420814
C	 0.964243	 0.982939	 0.675933
C	 1.112457	 -1.402643	 -0.176304
H	 0.969820	 0.359861	 -1.356824
H	 0.513421	 1.953088	 0.496713
H	 2.042775	 1.105081	 0.685149
H	 0.666202	 0.643203	 1.662805
H	 0.763650	 -2.083811	 -0.944939
H	 2.197491	 -1.383910	 -0.204849
H	 0.818635	 -1.797434	 0.790986

	symmetry c1
}
set optking {
	frozen_dihedral = ("
		6 3 2 1
	")
}

ee = energy('scf')
oeprop('DIPOLE', 'QUADRUPOLE', 'MULLIKEN_CHARGES')
f=open( 'psi4out.xyz', 'w' )
f.write( "15  " )
f.write( str(ee) + "\n" )
f.write( MOL.save_string_xyz() )
f.close()
--------------------------------------------------------------------------

  Memory set to   2.000 GiB by Python script.

*** tstart() called on cx1-3-4-2.cx1.hpc.ic.ac.uk
*** at Tue Jul  5 16:34:21 2016


         ---------------------------------------------------------
                                   SCF
            by Justin Turney, Rob Parrish, and Andy Simmonett
                              RHF Reference
                        1 Threads,   2000 MiB Core
         ---------------------------------------------------------

  ==> Geometry <==

    Molecular point group: c1
    Full point group: C1

    Geometry (in Angstrom), charge = 0, multiplicity = 1:

       Center              X                  Y                   Z               Mass       
    ------------   -----------------  -----------------  -----------------  -----------------
           H         -2.701278638336     0.084262492464     0.049061392904     1.007825032070
           C         -1.696402638336     0.084601492464     0.449043392904    12.000000000000
           O         -0.831521638336     0.083599492464    -0.644609607096    15.994914619560
           H         -1.576769638336     0.967463492464     1.070372392904     1.007825032070
           H         -1.576716638336    -0.797130507536     1.071981392904     1.007825032070
           C          0.556879361664     0.084549492464    -0.406187607096    12.000000000000
           C          0.961673361664     1.067506492464     0.690559392904    12.000000000000
           C          1.109887361664    -1.318075507536    -0.161677607096    12.000000000000
           H          0.967250361664     0.444428492464    -1.342197607096     1.007825032070
           H          0.510851361664     2.037655492464     0.511339392904     1.007825032070
           H          2.040205361664     1.189648492464     0.699775392904     1.007825032070
           H          0.663632361664     0.727770492464     1.677431392904     1.007825032070
           H          0.761080361664    -1.999243507536    -0.930312607096     1.007825032070
           H          2.194921361664    -1.299342507536    -0.190222607096     1.007825032070
           H          0.816065361664    -1.712866507536     0.805612392904     1.007825032070

  Running in c1 symmetry.

  Rotational constants: A =      0.22202  B =      0.13900  C =      0.10709 [cm^-1]
  Rotational constants: A =   6655.91513  B =   4167.04630  C =   3210.57118 [MHz]
  Nuclear repulsion =  198.777469642839662

  Charge       = 0
  Multiplicity = 1
  Electrons    = 42
  Nalpha       = 21
  Nbeta        = 21

  ==> Algorithm <==

  SCF Algorithm Type is DF.
  DIIS enabled.
  MOM disabled.
  Fractional occupation disabled.
  Guess Type is CORE.
  Energy threshold   = 1.00e-06
  Density threshold  = 1.00e-06
  Integral threshold = 0.00e+00

  ==> Primary Basis <==

  Basis Set: 6-31G*
    Number of shells: 50
    Number of basis function: 95
    Number of Cartesian functions: 95
    Spherical Harmonics?: false
    Max angular momentum: 2

  ==> Pre-Iterations <==

   -------------------------------------------------------
    Irrep   Nso     Nmo     Nalpha   Nbeta   Ndocc  Nsocc
   -------------------------------------------------------
     A         95      95       0       0       0       0
   -------------------------------------------------------
    Total      95      95      21      21      21       0
   -------------------------------------------------------

 OEINTS: Overlap, kinetic, potential, dipole, and quadrupole integrals
         stored in file 35.

  ==> Integral Setup <==

  ==> DFJK: Density-Fitted J/K Matrices <==

    J tasked:                  Yes
    K tasked:                  Yes
    wK tasked:                  No
    OpenMP threads:              1
    Integrals threads:           1
    Memory (MB):              1430
    Algorithm:                Core
    Integral Cache:           NONE
    Schwarz Cutoff:          1E-12
    Fitting Condition:       1E-12

   => Auxiliary Basis Set <=

  Basis Set: 
    Number of shells: 210
    Number of basis function: 655
    Number of Cartesian functions: 655
    Spherical Harmonics?: false
    Max angular momentum: 3

  Minimum eigenvalue in the overlap matrix is 4.2146825896E-03.
  Using Symmetric Orthogonalization.
  SCF Guess: Core (One-Electron) Hamiltonian.

  ==> Iterations <==

                           Total Energy        Delta E     RMS |[F,P]|

   @DF-RHF iter   1:  -179.57934574809303   -1.79579e+02   8.29100e-02 
   @DF-RHF iter   2:  -178.07471470733338    1.50463e+00   5.86537e-02 DIIS
   @DF-RHF iter   3:  -209.70513769261703   -3.16304e+01   5.09440e-02 DIIS
   @DF-RHF iter   4:  -231.00990714532895   -2.13048e+01   1.51629e-02 DIIS
   @DF-RHF iter   5:  -232.03748733208045   -1.02758e+00   4.46471e-03 DIIS
   @DF-RHF iter   6:  -232.12341249035944   -8.59252e-02   1.45431e-03 DIIS
   @DF-RHF iter   7:  -232.13577917113975   -1.23667e-02   3.23713e-04 DIIS
   @DF-RHF iter   8:  -232.13638381077214   -6.04640e-04   1.38362e-04 DIIS
   @DF-RHF iter   9:  -232.13650589198681   -1.22081e-04   2.55107e-05 DIIS
   @DF-RHF iter  10:  -232.13651159782165   -5.70583e-06   1.07135e-05 DIIS
   @DF-RHF iter  11:  -232.13651233726119   -7.39440e-07   3.31971e-06 DIIS
   @DF-RHF iter  12:  -232.13651241212199   -7.48608e-08   8.56254e-07 DIIS

  ==> Post-Iterations <==

    Orbital Energies (a.u.)
    -----------------------

    Doubly Occupied:                                                      

       1A    -20.548041     2A    -11.274184     3A    -11.261122  
       4A    -11.212836     5A    -11.208659     6A     -1.370381  
       7A     -1.050449     8A     -0.943415     9A     -0.927770  
      10A     -0.781022    11A     -0.674252    12A     -0.642975  
      13A     -0.632491    14A     -0.575563    15A     -0.560388  
      16A     -0.552067    17A     -0.533628    18A     -0.500426  
      19A     -0.496036    20A     -0.444187    21A     -0.404830  

    Virtual:                                                              

      22A      0.223282    23A      0.272380    24A      0.283298  
      25A      0.294348    26A      0.310787    27A      0.317341  
      28A      0.332036    29A      0.340350    30A      0.350387  
      31A      0.360743    32A      0.373602    33A      0.403162  
      34A      0.453609    35A      0.460101    36A      0.705491  
      37A      0.725046    38A      0.733357    39A      0.769761  
      40A      0.792958    41A      0.820928    42A      0.856700  
      43A      0.899702    44A      0.964540    45A      0.976353  
      46A      0.994346    47A      1.051311    48A      1.113832  
      49A      1.145776    50A      1.149127    51A      1.168975  
      52A      1.177043    53A      1.187552    54A      1.194719  
      55A      1.204888    56A      1.237737    57A      1.263911  
      58A      1.276742    59A      1.288137    60A      1.431353  
      61A      1.464332    62A      1.583692    63A      1.614722  
      64A      1.679866    65A      1.693629    66A      1.831099  
      67A      1.923251    68A      1.949491    69A      2.061172  
      70A      2.075423    71A      2.119733    72A      2.214388  
      73A      2.249803    74A      2.330410    75A      2.406831  
      76A      2.456205    77A      2.463789    78A      2.514735  
      79A      2.546771    80A      2.584200    81A      2.610590  
      82A      2.616779    83A      2.706189    84A      2.755664  
      85A      2.848152    86A      2.884951    87A      2.955978  
      88A      3.105401    89A      3.218359    90A      3.304745  
      91A      4.384889    92A      4.624721    93A      4.684087  
      94A      4.725088    95A      4.965291  

    Final Occupation by Irrep:
              A 
    DOCC [    21 ]

  Energy converged.

  @DF-RHF Final Energy:  -232.13651241212199

   => Energetics <=

    Nuclear Repulsion Energy =            198.7774696428396624
    One-Electron Energy =                -708.6384005036196641
    Two-Electron Energy =                 277.7244184486588665
    DFT Exchange-Correlation Energy =       0.0000000000000000
    Empirical Dispersion Energy =           0.0000000000000000
    PCM Polarization Energy =               0.0000000000000000
    EFP Energy =                            0.0000000000000000
    Total Energy =                       -232.1365124121211352

    Alert: EFP and PCM quantities not currently incorporated into SCF psivars.

Properties will be evaluated at   0.000000,   0.000000,   0.000000 Bohr
  ==> Properties <==


Properties computed using the SCF density matrix

  Nuclear Dipole Moment: (a.u.)
     X:     1.9640      Y:    -0.3346      Z:     3.2057

  Electronic Dipole Moment: (a.u.)
     X:    -1.7387      Y:     0.3582      Z:    -2.6912

  Dipole Moment: (a.u.)
     X:     0.2252      Y:     0.0236      Z:     0.5146     Total:     0.5622

  Dipole Moment: (Debye)
     X:     0.5725      Y:     0.0600      Z:     1.3079     Total:     1.4290


  Saving occupied orbitals to File 180.

*** tstop() called on cx1-3-4-2.cx1.hpc.ic.ac.uk at Tue Jul  5 16:34:26 2016
Module time:
	user time   =       4.86 seconds =       0.08 minutes
	system time =       0.04 seconds =       0.00 minutes
	total time  =          5 seconds =       0.08 minutes
Total time:
	user time   =       4.86 seconds =       0.08 minutes
	system time =       0.04 seconds =       0.00 minutes
	total time  =          5 seconds =       0.08 minutes


Properties will be evaluated at   0.000000,   0.000000,   0.000000 Bohr

Properties computed using the  density matrix

  Nuclear Dipole Moment: (a.u.)
     X:     1.9640      Y:    -0.3346      Z:     3.2057

  Electronic Dipole Moment: (a.u.)
     X:    -1.7387      Y:     0.3582      Z:    -2.6912

  Dipole Moment: (a.u.)
     X:     0.2252      Y:     0.0236      Z:     0.5146     Total:     0.5622

  Dipole Moment: (Debye)
     X:     0.5725      Y:     0.0600      Z:     1.3079     Total:     1.4290

  Quadrupole Moment: (Debye Ang)
    XX:   -31.4350     YY:   -33.4563     ZZ:   -34.1733
    XY:     0.1424     XZ:    -2.3754     YZ:     0.0754

  Traceless Quadrupole Moment: (Debye Ang)
    XX:     1.5866     YY:    -0.4348     ZZ:    -1.1518
    XY:     0.1424     XZ:    -2.3754     YZ:     0.0754

  Mulliken Charges: (a.u.)
   Center  Symbol    Alpha    Beta     Spin     Total
       1     H     0.41250  0.41250  0.00000  0.17500
       2     C     3.08121  3.08121  0.00000 -0.16241
       3     O     4.31340  4.31340  0.00000 -0.62681
       4     H     0.42767  0.42767  0.00000  0.14466
       5     H     0.43091  0.43091  0.00000  0.13819
       6     C     2.90592  2.90592  0.00000  0.18815
       7     C     3.26140  3.26140  0.00000 -0.52281
       8     C     3.24769  3.24769  0.00000 -0.49538
       9     H     0.41633  0.41633  0.00000  0.16735
      10     H     0.41177  0.41177  0.00000  0.17646
      11     H     0.41649  0.41649  0.00000  0.16703
      12     H     0.41954  0.41954  0.00000  0.16092
      13     H     0.41112  0.41112  0.00000  0.17777
      14     H     0.42172  0.42172  0.00000  0.15655
      15     H     0.42233  0.42233  0.00000  0.15533

   Total alpha = 21.00000, Total beta = 21.00000, Total charge = -0.00000


*** PSI4 exiting successfully. Buy a developer a beer!
