    -----------------------------------------------------------------------
          Psi4: An Open-Source Ab Initio Electronic Structure Package
                              Psi4 (no tag) Driver

                          Git: Rev {detached?}  

    J. M. Turney, A. C. Simmonett, R. M. Parrish, E. G. Hohenstein,
    F. A. Evangelista, J. T. Fermann, B. J. Mintz, L. A. Burns, J. J. Wilke,
    M. L. Abrams, N. J. Russ, M. L. Leininger, C. L. Janssen, E. T. Seidl,
    W. D. Allen, H. F. Schaefer, R. A. King, E. F. Valeev, C. D. Sherrill,
    and T. D. Crawford, WIREs Comput. Mol. Sci. 2, 556-565 (2012)
    (doi: 10.1002/wcms.93)

                         Additional Contributions by
    A. E. DePrince, M. Saitow, U. Bozkaya, A. Yu. Sokolov
    -----------------------------------------------------------------------


    Psi4 started on: Tue Jul  5 16:29:30 2016

    Process ID:  29722
    PSI4DATADIR: /export131/home/mjharvey/miniconda3/share
    Memory level set to 256.000 MB

  ==> Input File <==

--------------------------------------------------------------------------
set {
	reference rhf
	basis 6-31G*
}


set_num_threads( 1 )
memory 2 gb

molecule MOL {
0 1

H	 2.419119	 -0.710277	 0.353736
C	 1.696523	 0.086296	 0.427098
O	 0.464886	 -0.454746	 -0.000158
H	 2.003038	 0.907527	 -0.209812
H	 1.638215	 0.423257	 1.455260
C	 -0.590998	 0.343045	 0.000118
O	 -1.699443	 -0.054298	 0.000227
H	 -0.340329	 1.404368	 0.000207

	symmetry c1
}
ee = energy('scf')
oeprop('DIPOLE', 'QUADRUPOLE', 'MULLIKEN_CHARGES')
f=open( 'psi4out.xyz', 'w' )
f.write( "8  " )
f.write( str(ee) + "\n" )
f.write( MOL.save_string_xyz() )
f.close()
--------------------------------------------------------------------------

  Memory set to   2.000 GiB by Python script.

*** tstart() called on cx1-3-15-4.cx1.hpc.ic.ac.uk
*** at Tue Jul  5 16:29:30 2016


         ---------------------------------------------------------
                                   SCF
            by Justin Turney, Rob Parrish, and Andy Simmonett
                              RHF Reference
                        1 Threads,   2000 MiB Core
         ---------------------------------------------------------

  ==> Geometry <==

    Molecular point group: c1
    Full point group: C1

    Geometry (in Angstrom), charge = 0, multiplicity = 1:

       Center              X                  Y                   Z               Mass       
    ------------   -----------------  -----------------  -----------------  -----------------
           H          2.431040323301    -0.694460842993     0.241448843693     1.007825032070
           C          1.708444323301     0.102112157007     0.314810843693    12.000000000000
           O          0.476807323301    -0.438929842993    -0.112445156307    15.994914619560
           H          2.014959323301     0.923343157007    -0.322099156307     1.007825032070
           H          1.650136323301     0.439073157007     1.342972843693     1.007825032070
           C         -0.579076676699     0.358861157007    -0.112169156307    12.000000000000
           O         -1.687521676699    -0.038481842993    -0.112060156307    15.994914619560
           H         -0.328407676699     1.420184157007    -0.112080156307     1.007825032070

  Running in c1 symmetry.

  Rotational constants: A =      1.57986  B =      0.16091  C =      0.15186 [cm^-1]
  Rotational constants: A =  47362.92834  B =   4824.01542  C =   4552.62047 [MHz]
  Nuclear repulsion =  121.246485625341165

  Charge       = 0
  Multiplicity = 1
  Electrons    = 32
  Nalpha       = 16
  Nbeta        = 16

  ==> Algorithm <==

  SCF Algorithm Type is DF.
  DIIS enabled.
  MOM disabled.
  Fractional occupation disabled.
  Guess Type is CORE.
  Energy threshold   = 1.00e-06
  Density threshold  = 1.00e-06
  Integral threshold = 0.00e+00

  ==> Primary Basis <==

  Basis Set: 6-31G*
    Number of shells: 32
    Number of basis function: 68
    Number of Cartesian functions: 68
    Spherical Harmonics?: false
    Max angular momentum: 2

  ==> Pre-Iterations <==

   -------------------------------------------------------
    Irrep   Nso     Nmo     Nalpha   Nbeta   Ndocc  Nsocc
   -------------------------------------------------------
     A         68      68       0       0       0       0
   -------------------------------------------------------
    Total      68      68      16      16      16       0
   -------------------------------------------------------

 OEINTS: Overlap, kinetic, potential, dipole, and quadrupole integrals
         stored in file 35.

  ==> Integral Setup <==

  ==> DFJK: Density-Fitted J/K Matrices <==

    J tasked:                  Yes
    K tasked:                  Yes
    wK tasked:                  No
    OpenMP threads:              1
    Integrals threads:           1
    Memory (MB):              1430
    Algorithm:                Core
    Integral Cache:           NONE
    Schwarz Cutoff:          1E-12
    Fitting Condition:       1E-12

   => Auxiliary Basis Set <=

  Basis Set: 
    Number of shells: 132
    Number of basis function: 424
    Number of Cartesian functions: 424
    Spherical Harmonics?: false
    Max angular momentum: 3

  Minimum eigenvalue in the overlap matrix is 5.0470831550E-03.
  Using Symmetric Orthogonalization.
  SCF Guess: Core (One-Electron) Hamiltonian.

  ==> Iterations <==

                           Total Energy        Delta E     RMS |[F,P]|

   @DF-RHF iter   1:  -187.15021095296584   -1.87150e+02   9.61132e-02 
   @DF-RHF iter   2:  -146.19560167063048    4.09546e+01   8.72387e-02 DIIS
   @DF-RHF iter   3:  -210.16911558828127   -6.39735e+01   5.56302e-02 DIIS
   @DF-RHF iter   4:  -227.39333079618166   -1.72242e+01   1.37573e-02 DIIS
   @DF-RHF iter   5:  -227.60715864981512   -2.13828e-01   9.43042e-03 DIIS
   @DF-RHF iter   6:  -227.76766090083197   -1.60502e-01   1.80306e-03 DIIS
   @DF-RHF iter   7:  -227.77528390270430   -7.62300e-03   9.83474e-04 DIIS
   @DF-RHF iter   8:  -227.77741861340292   -2.13471e-03   4.09269e-04 DIIS
   @DF-RHF iter   9:  -227.77784114672312   -4.22533e-04   1.69524e-04 DIIS
   @DF-RHF iter  10:  -227.77793214369785   -9.09970e-05   3.88358e-05 DIIS
   @DF-RHF iter  11:  -227.77793802603298   -5.88234e-06   8.38239e-06 DIIS
   @DF-RHF iter  12:  -227.77793841695211   -3.90919e-07   3.20371e-06 DIIS
   @DF-RHF iter  13:  -227.77793846655362   -4.96015e-08   8.32850e-07 DIIS

  ==> Post-Iterations <==

    Orbital Energies (a.u.)
    -----------------------

    Doubly Occupied:                                                      

       1A    -20.614997     2A    -20.559104     3A    -11.382129  
       4A    -11.304630     5A     -1.476596     6A     -1.382813  
       7A     -0.993504     8A     -0.848128     9A     -0.738705  
      10A     -0.685710    11A     -0.681280    12A     -0.608663  
      13A     -0.570399    14A     -0.537037    15A     -0.462408  
      16A     -0.453811  

    Virtual:                                                              

      17A      0.180226    18A      0.231330    19A      0.280170  
      20A      0.299125    21A      0.301941    22A      0.318175  
      23A      0.449349    24A      0.520473    25A      0.692283  
      26A      0.736148    27A      0.746545    28A      0.776181  
      29A      0.825739    30A      0.955068    31A      0.993225  
      32A      1.084058    33A      1.108714    34A      1.114383  
      35A      1.122705    36A      1.192603    37A      1.203068  
      38A      1.276674    39A      1.309735    40A      1.341599  
      41A      1.418126    42A      1.494907    43A      1.647543  
      44A      1.694836    45A      1.742831    46A      1.842553  
      47A      1.876005    48A      1.960063    49A      2.100113  
      50A      2.149092    51A      2.215225    52A      2.314113  
      53A      2.363081    54A      2.428719    55A      2.499881  
      56A      2.552725    57A      2.611906    58A      2.794420  
      59A      2.919295    60A      3.004508    61A      3.023498  
      62A      3.189896    63A      3.352609    64A      3.496550  
      65A      4.268339    66A      4.356778    67A      4.648148  
      68A      4.672887  

    Final Occupation by Irrep:
              A 
    DOCC [    16 ]

  Energy converged.

  @DF-RHF Final Energy:  -227.77793846655362

   => Energetics <=

    Nuclear Repulsion Energy =            121.2464856253411654
    One-Electron Energy =                -551.4490577096318020
    Two-Electron Energy =                 202.4246336177372143
    DFT Exchange-Correlation Energy =       0.0000000000000000
    Empirical Dispersion Energy =           0.0000000000000000
    PCM Polarization Energy =               0.0000000000000000
    EFP Energy =                            0.0000000000000000
    Total Energy =                       -227.7779384665534224

    Alert: EFP and PCM quantities not currently incorporated into SCF psivars.

Properties will be evaluated at   0.000000,   0.000000,   0.000000 Bohr
  ==> Properties <==


Properties computed using the SCF density matrix

  Nuclear Dipole Moment: (a.u.)
     X:     5.4013      Y:     1.9553      Z:     1.0772

  Electronic Dipole Moment: (a.u.)
     X:    -3.8625      Y:    -1.1084      Z:    -0.8360

  Dipole Moment: (a.u.)
     X:     1.5387      Y:     0.8469      Z:     0.2413     Total:     1.7729

  Dipole Moment: (Debye)
     X:     3.9110      Y:     2.1525      Z:     0.6132     Total:     4.5062


  Saving occupied orbitals to File 180.

*** tstop() called on cx1-3-15-4.cx1.hpc.ic.ac.uk at Tue Jul  5 16:29:32 2016
Module time:
	user time   =       1.76 seconds =       0.03 minutes
	system time =       0.02 seconds =       0.00 minutes
	total time  =          2 seconds =       0.03 minutes
Total time:
	user time   =       1.76 seconds =       0.03 minutes
	system time =       0.02 seconds =       0.00 minutes
	total time  =          2 seconds =       0.03 minutes


Properties will be evaluated at   0.000000,   0.000000,   0.000000 Bohr

Properties computed using the  density matrix

  Nuclear Dipole Moment: (a.u.)
     X:     5.4013      Y:     1.9553      Z:     1.0772

  Electronic Dipole Moment: (a.u.)
     X:    -3.8625      Y:    -1.1084      Z:    -0.8360

  Dipole Moment: (a.u.)
     X:     1.5387      Y:     0.8469      Z:     0.2413     Total:     1.7729

  Dipole Moment: (Debye)
     X:     3.9110      Y:     2.1525      Z:     0.6132     Total:     4.5062

  Quadrupole Moment: (Debye Ang)
    XX:   -25.3858     YY:   -23.0482     ZZ:   -22.7087
    XY:    -0.4248     XZ:     0.5429     YZ:    -0.3049

  Traceless Quadrupole Moment: (Debye Ang)
    XX:    -1.6716     YY:     0.6661     ZZ:     1.0055
    XY:    -0.4248     XZ:     0.5429     YZ:    -0.3049

  Mulliken Charges: (a.u.)
   Center  Symbol    Alpha    Beta     Spin     Total
       1     H     0.39595  0.39595  0.00000  0.20810
       2     C     3.10082  3.10082  0.00000 -0.20165
       3     O     4.27777  4.27777  0.00000 -0.55554
       4     H     0.41470  0.41470  0.00000  0.17060
       5     H     0.41188  0.41188  0.00000  0.17624
       6     C     2.72227  2.72227  0.00000  0.55546
       7     O     4.24495  4.24495  0.00000 -0.48991
       8     H     0.43165  0.43165  0.00000  0.13670

   Total alpha = 16.00000, Total beta = 16.00000, Total charge =  0.00000


*** PSI4 exiting successfully. Buy a developer a beer!
