    -----------------------------------------------------------------------
          Psi4: An Open-Source Ab Initio Electronic Structure Package
                              Psi4 (no tag) Driver

                          Git: Rev {detached?}  

    J. M. Turney, A. C. Simmonett, R. M. Parrish, E. G. Hohenstein,
    F. A. Evangelista, J. T. Fermann, B. J. Mintz, L. A. Burns, J. J. Wilke,
    M. L. Abrams, N. J. Russ, M. L. Leininger, C. L. Janssen, E. T. Seidl,
    W. D. Allen, H. F. Schaefer, R. A. King, E. F. Valeev, C. D. Sherrill,
    and T. D. Crawford, WIREs Comput. Mol. Sci. 2, 556-565 (2012)
    (doi: 10.1002/wcms.93)

                         Additional Contributions by
    A. E. DePrince, M. Saitow, U. Bozkaya, A. Yu. Sokolov
    -----------------------------------------------------------------------


    Psi4 started on: Tue Jul  5 16:24:05 2016

    Process ID:  14949
    PSI4DATADIR: /export131/home/mjharvey/miniconda3/share
    Memory level set to 256.000 MB

  ==> Input File <==

--------------------------------------------------------------------------
set {
	reference rhf
	basis 6-31G*
}


set_num_threads( 1 )
memory 2 gb

molecule MOL {
0 1

H	 -0.095815	 -0.258216	 3.032088
O	 -0.046189	 -0.263029	 2.086994
C	 -0.027600	 1.057957	 1.607601
C	 0.031547	 1.023609	 0.088541
H	 0.843096	 1.588894	 1.988239
H	 -0.908947	 1.598765	 1.945026
C	 -1.134819	 0.293262	 -0.585751
H	 0.962685	 0.543691	 -0.199471
H	 0.081211	 2.050078	 -0.270783
C	 -1.917817	 -0.639439	 0.339494
H	 -0.758119	 -0.268455	 -1.433105
H	 -1.813832	 1.041889	 -0.986690
H	 -2.777680	 -1.057197	 -0.174994
H	 -1.310268	 -1.471279	 0.680599
H	 -2.283753	 -0.111424	 1.216626

	symmetry c1
}
set optking {
	frozen_dihedral = ("
		2 3 4 8,
		1 2 3 4
	")
}

ee = energy('scf')
oeprop('DIPOLE', 'QUADRUPOLE', 'MULLIKEN_CHARGES')
f=open( 'psi4out.xyz', 'w' )
f.write( "15  " )
f.write( str(ee) + "\n" )
f.write( MOL.save_string_xyz() )
f.close()
--------------------------------------------------------------------------

  Memory set to   2.000 GiB by Python script.

*** tstart() called on cx1-1-3-3.cx1.hpc.ic.ac.uk
*** at Tue Jul  5 16:24:06 2016


         ---------------------------------------------------------
                                   SCF
            by Justin Turney, Rob Parrish, and Andy Simmonett
                              RHF Reference
                        1 Threads,   2000 MiB Core
         ---------------------------------------------------------

  ==> Geometry <==

    Molecular point group: c1
    Full point group: C1

    Geometry (in Angstrom), charge = 0, multiplicity = 1:

       Center              X                  Y                   Z               Mass       
    ------------   -----------------  -----------------  -----------------  -----------------
           H          0.517734590242    -0.532308537745     2.267670659597     1.007825032070
           O          0.567360590242    -0.537121537745     1.322576659597    15.994914619560
           C          0.585949590242     0.783864462255     0.843183659597    12.000000000000
           C          0.645096590242     0.749516462255    -0.675876340403    12.000000000000
           H          1.456645590242     1.314801462255     1.223821659597     1.007825032070
           H         -0.295397409758     1.324672462255     1.180608659597     1.007825032070
           C         -0.521269409758     0.019169462255    -1.350168340403    12.000000000000
           H          1.576234590242     0.269598462255    -0.963888340403     1.007825032070
           H          0.694760590242     1.775985462255    -1.035200340403     1.007825032070
           C         -1.304267409758    -0.913531537745    -0.424923340403    12.000000000000
           H         -0.144569409758    -0.542547537745    -2.197522340403     1.007825032070
           H         -1.200282409758     0.767796462255    -1.751107340403     1.007825032070
           H         -2.164130409758    -1.331289537745    -0.939411340403     1.007825032070
           H         -0.696718409758    -1.745371537745    -0.083818340403     1.007825032070
           H         -1.670203409758    -0.385516537745     0.452208659597     1.007825032070

  Running in c1 symmetry.

  Rotational constants: A =      0.23129  B =      0.14295  C =      0.09985 [cm^-1]
  Rotational constants: A =   6934.02106  B =   4285.54327  C =   2993.51947 [MHz]
  Nuclear repulsion =  197.155732637192585

  Charge       = 0
  Multiplicity = 1
  Electrons    = 42
  Nalpha       = 21
  Nbeta        = 21

  ==> Algorithm <==

  SCF Algorithm Type is DF.
  DIIS enabled.
  MOM disabled.
  Fractional occupation disabled.
  Guess Type is CORE.
  Energy threshold   = 1.00e-06
  Density threshold  = 1.00e-06
  Integral threshold = 0.00e+00

  ==> Primary Basis <==

  Basis Set: 6-31G*
    Number of shells: 50
    Number of basis function: 95
    Number of Cartesian functions: 95
    Spherical Harmonics?: false
    Max angular momentum: 2

  ==> Pre-Iterations <==

   -------------------------------------------------------
    Irrep   Nso     Nmo     Nalpha   Nbeta   Ndocc  Nsocc
   -------------------------------------------------------
     A         95      95       0       0       0       0
   -------------------------------------------------------
    Total      95      95      21      21      21       0
   -------------------------------------------------------

 OEINTS: Overlap, kinetic, potential, dipole, and quadrupole integrals
         stored in file 35.

  ==> Integral Setup <==

  ==> DFJK: Density-Fitted J/K Matrices <==

    J tasked:                  Yes
    K tasked:                  Yes
    wK tasked:                  No
    OpenMP threads:              1
    Integrals threads:           1
    Memory (MB):              1430
    Algorithm:                Core
    Integral Cache:           NONE
    Schwarz Cutoff:          1E-12
    Fitting Condition:       1E-12

   => Auxiliary Basis Set <=

  Basis Set: 
    Number of shells: 210
    Number of basis function: 655
    Number of Cartesian functions: 655
    Spherical Harmonics?: false
    Max angular momentum: 3

  Minimum eigenvalue in the overlap matrix is 3.7752340425E-03.
  Using Symmetric Orthogonalization.
  SCF Guess: Core (One-Electron) Hamiltonian.

  ==> Iterations <==

                           Total Energy        Delta E     RMS |[F,P]|

   @DF-RHF iter   1:  -185.36690972523886   -1.85367e+02   7.88086e-02 
   @DF-RHF iter   2:  -151.38954180518985    3.39774e+01   6.92282e-02 DIIS
   @DF-RHF iter   3:  -194.34263918048535   -4.29531e+01   5.26117e-02 DIIS
   @DF-RHF iter   4:  -215.57316134769590   -2.12305e+01   4.82692e-02 DIIS
   @DF-RHF iter   5:  -231.67214614772487   -1.60990e+01   9.90554e-03 DIIS
   @DF-RHF iter   6:  -232.06188381568981   -3.89738e-01   3.63553e-03 DIIS
   @DF-RHF iter   7:  -232.12064663749115   -5.87628e-02   1.26071e-03 DIIS
   @DF-RHF iter   8:  -232.12827142667109   -7.62479e-03   3.54659e-04 DIIS
   @DF-RHF iter   9:  -232.12907984888645   -8.08422e-04   9.28883e-05 DIIS
   @DF-RHF iter  10:  -232.12914069191837   -6.08430e-05   3.04916e-05 DIIS
   @DF-RHF iter  11:  -232.12914735893375   -6.66702e-06   1.00669e-05 DIIS
   @DF-RHF iter  12:  -232.12914801777285   -6.58839e-07   2.43330e-06 DIIS
   @DF-RHF iter  13:  -232.12914806740477   -4.96319e-08   5.13464e-07 DIIS

  ==> Post-Iterations <==

    Orbital Energies (a.u.)
    -----------------------

    Doubly Occupied:                                                      

       1A    -20.552055     2A    -11.269046     3A    -11.211775  
       4A    -11.207475     5A    -11.189077     6A     -1.362452  
       7A     -1.061342     8A     -0.965593     9A     -0.865412  
      10A     -0.770199    11A     -0.706882    12A     -0.655253  
      13A     -0.601652    14A     -0.570286    15A     -0.555004  
      16A     -0.526101    17A     -0.510320    18A     -0.473576  
      19A     -0.457294    20A     -0.449965    21A     -0.420487  

    Virtual:                                                              

      22A      0.218756    23A      0.254574    24A      0.284532  
      25A      0.289713    26A      0.297169    27A      0.331233  
      28A      0.345124    29A      0.355582    30A      0.364936  
      31A      0.384827    32A      0.395170    33A      0.417936  
      34A      0.445019    35A      0.497161    36A      0.726319  
      37A      0.745171    38A      0.762324    39A      0.800484  
      40A      0.818835    41A      0.848025    42A      0.881263  
      43A      0.923979    44A      0.948713    45A      1.010678  
      46A      1.030441    47A      1.112227    48A      1.125695  
      49A      1.146372    50A      1.153168    51A      1.172368  
      52A      1.177535    53A      1.215233    54A      1.220050  
      55A      1.224843    56A      1.251118    57A      1.257058  
      58A      1.293741    59A      1.311437    60A      1.367696  
      61A      1.461830    62A      1.592437    63A      1.606870  
      64A      1.708026    65A      1.734648    66A      1.890546  
      67A      1.895885    68A      2.030449    69A      2.048138  
      70A      2.074023    71A      2.199047    72A      2.217927  
      73A      2.248826    74A      2.328748    75A      2.344752  
      76A      2.395499    77A      2.403661    78A      2.523303  
      79A      2.582092    80A      2.646890    81A      2.691551  
      82A      2.725955    83A      2.749238    84A      2.772927  
      85A      2.821433    86A      2.874879    87A      2.936223  
      88A      3.039598    89A      3.099853    90A      3.232777  
      91A      4.256500    92A      4.579349    93A      4.724292  
      94A      4.807696    95A      5.018126  

    Final Occupation by Irrep:
              A 
    DOCC [    21 ]

  Energy converged.

  @DF-RHF Final Energy:  -232.12914806740477

   => Energetics <=

    Nuclear Repulsion Energy =            197.1557326371925853
    One-Electron Energy =                -705.8070843986133696
    Two-Electron Energy =                 276.5222036940156727
    DFT Exchange-Correlation Energy =       0.0000000000000000
    Empirical Dispersion Energy =           0.0000000000000000
    PCM Polarization Energy =               0.0000000000000000
    EFP Energy =                            0.0000000000000000
    Total Energy =                       -232.1291480674050831

    Alert: EFP and PCM quantities not currently incorporated into SCF psivars.

Properties will be evaluated at   0.000000,   0.000000,   0.000000 Bohr
  ==> Properties <==


Properties computed using the SCF density matrix

  Nuclear Dipole Moment: (a.u.)
     X:    -1.8028      Y:     0.8560      Z:    -1.7248

  Electronic Dipole Moment: (a.u.)
     X:     1.8656      Y:    -0.3474      Z:     2.1717

  Dipole Moment: (a.u.)
     X:     0.0628      Y:     0.5086      Z:     0.4469     Total:     0.6800

  Dipole Moment: (Debye)
     X:     0.1597      Y:     1.2927      Z:     1.1359     Total:     1.7283


  Saving occupied orbitals to File 180.

*** tstop() called on cx1-1-3-3.cx1.hpc.ic.ac.uk at Tue Jul  5 16:24:12 2016
Module time:
	user time   =       5.78 seconds =       0.10 minutes
	system time =       0.03 seconds =       0.00 minutes
	total time  =          6 seconds =       0.10 minutes
Total time:
	user time   =       5.78 seconds =       0.10 minutes
	system time =       0.03 seconds =       0.00 minutes
	total time  =          6 seconds =       0.10 minutes


Properties will be evaluated at   0.000000,   0.000000,   0.000000 Bohr

Properties computed using the  density matrix

  Nuclear Dipole Moment: (a.u.)
     X:    -1.8028      Y:     0.8560      Z:    -1.7248

  Electronic Dipole Moment: (a.u.)
     X:     1.8656      Y:    -0.3474      Z:     2.1717

  Dipole Moment: (a.u.)
     X:     0.0628      Y:     0.5086      Z:     0.4469     Total:     0.6800

  Dipole Moment: (Debye)
     X:     0.1597      Y:     1.2927      Z:     1.1359     Total:     1.7283

  Quadrupole Moment: (Debye Ang)
    XX:   -34.3909     YY:   -33.6571     ZZ:   -28.4557
    XY:     0.3704     XZ:     0.0558     YZ:     0.5843

  Traceless Quadrupole Moment: (Debye Ang)
    XX:    -2.2230     YY:    -1.4892     ZZ:     3.7122
    XY:     0.3704     XZ:     0.0558     YZ:     0.5843

  Mulliken Charges: (a.u.)
   Center  Symbol    Alpha    Beta     Spin     Total
       1     H     0.28100  0.28100  0.00000  0.43799
       2     O     4.36712  4.36712  0.00000 -0.73424
       3     C     3.00792  3.00792  0.00000 -0.01585
       4     C     3.15856  3.15856  0.00000 -0.31712
       5     H     0.42683  0.42683  0.00000  0.14634
       6     H     0.43120  0.43120  0.00000  0.13760
       7     C     3.15520  3.15520  0.00000 -0.31041
       8     H     0.41493  0.41493  0.00000  0.17014
       9     H     0.42131  0.42131  0.00000  0.15737
      10     C     3.22978  3.22978  0.00000 -0.45956
      11     H     0.41964  0.41964  0.00000  0.16073
      12     H     0.42491  0.42491  0.00000  0.15018
      13     H     0.42925  0.42925  0.00000  0.14150
      14     H     0.40574  0.40574  0.00000  0.18852
      15     H     0.42660  0.42660  0.00000  0.14680

   Total alpha = 21.00000, Total beta = 21.00000, Total charge = -0.00000


*** PSI4 exiting successfully. Buy a developer a beer!
