    -----------------------------------------------------------------------
          Psi4: An Open-Source Ab Initio Electronic Structure Package
                              Psi4 (no tag) Driver

                          Git: Rev {detached?}  

    J. M. Turney, A. C. Simmonett, R. M. Parrish, E. G. Hohenstein,
    F. A. Evangelista, J. T. Fermann, B. J. Mintz, L. A. Burns, J. J. Wilke,
    M. L. Abrams, N. J. Russ, M. L. Leininger, C. L. Janssen, E. T. Seidl,
    W. D. Allen, H. F. Schaefer, R. A. King, E. F. Valeev, C. D. Sherrill,
    and T. D. Crawford, WIREs Comput. Mol. Sci. 2, 556-565 (2012)
    (doi: 10.1002/wcms.93)

                         Additional Contributions by
    A. E. DePrince, M. Saitow, U. Bozkaya, A. Yu. Sokolov
    -----------------------------------------------------------------------


    Psi4 started on: Tue Jul  5 17:52:09 2016

    Process ID:   2947
    PSI4DATADIR: /export131/home/mjharvey/miniconda3/share
    Memory level set to 256.000 MB

  ==> Input File <==

--------------------------------------------------------------------------
set {
	reference rhf
	basis 6-31G*
}


set_num_threads( 1 )
memory 2 gb

molecule MOL {
0 1

O	 -0.543193	 -1.990179	 1.291978
C	 -1.514987	 -1.440192	 0.882411
C	 -2.918404	 -1.786592	 1.308672
O	 -1.481751	 -0.454642	 0.000584
H	 -2.994882	 -1.668498	 2.382947
H	 -3.653429	 -1.166006	 0.817705
H	 -3.104273	 -2.829106	 1.079552
C	 -0.334255	 0.388708	 0.000906
C	 0.891947	 -0.504646	 0.000751
H	 -0.365390	 1.025305	 -0.873475
H	 -0.365484	 1.024911	 0.875569
C	 0.838286	 -1.556101	 -1.109219
H	 0.972990	 -0.989855	 0.969484
H	 1.777328	 0.114301	 -0.115286
C	 -0.165550	 -2.674382	 -0.822711
H	 0.580561	 -1.076907	 -2.052106
H	 1.827151	 -1.989778	 -1.247612
C	 -1.569591	 -2.151369	 -0.522723
H	 0.186978	 -3.266682	 0.018705
H	 -0.205447	 -3.348458	 -1.675412
H	 -1.568128	 -1.500106	 0.346683
H	 -2.257858	 -2.966803	 -0.323744
H	 -1.963632	 -1.582803	 -1.360264

	symmetry c1
}
set optking {
	frozen_dihedral = ("
		13 9 8 10,
		2 4 8 10,
		16 12 9 13,
		19 15 12 16
	")
}

ee = energy('scf')
oeprop('DIPOLE', 'QUADRUPOLE', 'MULLIKEN_CHARGES')
f=open( 'psi4out.xyz', 'w' )
f.write( "23  " )
f.write( str(ee) + "\n" )
f.write( MOL.save_string_xyz() )
f.close()
--------------------------------------------------------------------------

  Memory set to   2.000 GiB by Python script.

*** tstart() called on cx1-3-4-2.cx1.hpc.ic.ac.uk
*** at Tue Jul  5 17:52:09 2016


         ---------------------------------------------------------
                                   SCF
            by Justin Turney, Rob Parrish, and Andy Simmonett
                              RHF Reference
                        1 Threads,   2000 MiB Core
         ---------------------------------------------------------

  ==> Geometry <==

    Molecular point group: c1
    Full point group: C1

    Geometry (in Angstrom), charge = 0, multiplicity = 1:

       Center              X                  Y                   Z               Mass       
    ------------   -----------------  -----------------  -----------------  -----------------
           O          0.232214920800    -0.635996508730     1.166188366567    15.994914619560
           C         -0.739579079200    -0.086009508730     0.756621366567    12.000000000000
           C         -2.142996079200    -0.432409508730     1.182882366567    12.000000000000
           O         -0.706343079200     0.899540491270    -0.125205633433    15.994914619560
           H         -2.219474079200    -0.314315508730     2.257157366567     1.007825032070
           H         -2.878021079200     0.188176491270     0.691915366567     1.007825032070
           H         -2.328865079200    -1.474923508730     0.953762366567     1.007825032070
           C          0.441152920800     1.742890491270    -0.124883633433    12.000000000000
           C          1.667354920800     0.849536491270    -0.125038633433    12.000000000000
           H          0.410017920800     2.379487491270    -0.999264633433     1.007825032070
           H          0.409923920800     2.379093491270     0.749779366567     1.007825032070
           C          1.613693920800    -0.201918508730    -1.235008633433    12.000000000000
           H          1.748397920800     0.364327491270     0.843694366567     1.007825032070
           H          2.552735920800     1.468483491270    -0.241075633433     1.007825032070
           C          0.609857920800    -1.320199508730    -0.948500633433    12.000000000000
           H          1.355968920800     0.277275491270    -2.177895633433     1.007825032070
           H          2.602558920800    -0.635595508730    -1.373401633433     1.007825032070
           C         -0.794183079200    -0.797186508730    -0.648512633433    12.000000000000
           H          0.962385920800    -1.912499508730    -0.107084633433     1.007825032070
           H          0.569960920800    -1.994275508730    -1.801201633433     1.007825032070
           H         -0.792720079200    -0.145923508730     0.220893366567     1.007825032070
           H         -1.482450079200    -1.612620508730    -0.449533633433     1.007825032070
           H         -1.188224079200    -0.228620508730    -1.486053633433     1.007825032070

  Running in c1 symmetry.

  Rotational constants: A =      0.09430  B =      0.05716  C =      0.04684 [cm^-1]
  Rotational constants: A =   2826.97895  B =   1713.53846  C =   1404.35368 [MHz]
  Nuclear repulsion =  561.748666146858000

  Charge       = 0
  Multiplicity = 1
  Electrons    = 72
  Nalpha       = 36
  Nbeta        = 36

  ==> Algorithm <==

  SCF Algorithm Type is DF.
  DIIS enabled.
  MOM disabled.
  Fractional occupation disabled.
  Guess Type is CORE.
  Energy threshold   = 1.00e-06
  Density threshold  = 1.00e-06
  Integral threshold = 0.00e+00

  ==> Primary Basis <==

  Basis Set: 6-31G*
    Number of shells: 82
    Number of basis function: 163
    Number of Cartesian functions: 163
    Spherical Harmonics?: false
    Max angular momentum: 2

  ==> Pre-Iterations <==

   -------------------------------------------------------
    Irrep   Nso     Nmo     Nalpha   Nbeta   Ndocc  Nsocc
   -------------------------------------------------------
     A        163     163       0       0       0       0
   -------------------------------------------------------
    Total     163     163      36      36      36       0
   -------------------------------------------------------

 OEINTS: Overlap, kinetic, potential, dipole, and quadrupole integrals
         stored in file 35.

  ==> Integral Setup <==

  ==> DFJK: Density-Fitted J/K Matrices <==

    J tasked:                  Yes
    K tasked:                  Yes
    wK tasked:                  No
    OpenMP threads:              1
    Integrals threads:           1
    Memory (MB):              1430
    Algorithm:                Core
    Integral Cache:           NONE
    Schwarz Cutoff:          1E-12
    Fitting Condition:       1E-12

   => Auxiliary Basis Set <=

  Basis Set: 
    Number of shells: 342
    Number of basis function: 1079
    Number of Cartesian functions: 1079
    Spherical Harmonics?: false
    Max angular momentum: 3

  Minimum eigenvalue in the overlap matrix is 1.2579202029E-04.
  Using Symmetric Orthogonalization.
  SCF Guess: Core (One-Electron) Hamiltonian.

  ==> Iterations <==

                           Total Energy        Delta E     RMS |[F,P]|

   @DF-RHF iter   1:  -266.07962650365641   -2.66080e+02   8.39968e-02 
   @DF-RHF iter   2:  -208.36066152508863    5.77190e+01   6.21640e-02 DIIS
   @DF-RHF iter   3:  -317.43202194614366   -1.09071e+02   6.01184e-02 DIIS
   @DF-RHF iter   4:  -391.36482964055597   -7.39328e+01   3.74418e-02 DIIS
   @DF-RHF iter   5:  -399.30699883142677   -7.94217e+00   3.21523e-02 DIIS
   @DF-RHF iter   6:  -421.12498804419829   -2.18180e+01   6.39612e-03 DIIS
   @DF-RHF iter   7:  -421.61575366902628   -4.90766e-01   2.26088e-03 DIIS
   @DF-RHF iter   8:  -421.67582246427060   -6.00688e-02   4.88823e-04 DIIS
   @DF-RHF iter   9:  -421.67943301808157   -3.61055e-03   1.96055e-04 DIIS
   @DF-RHF iter  10:  -421.68007494230676   -6.41924e-04   5.35723e-05 DIIS
   @DF-RHF iter  11:  -421.68014258949165   -6.76472e-05   1.68413e-05 DIIS
   @DF-RHF iter  12:  -421.68014955508954   -6.96560e-06   6.51482e-06 DIIS
   @DF-RHF iter  13:  -421.68015058344895   -1.02836e-06   1.89647e-06 DIIS
   @DF-RHF iter  14:  -421.68015070328511   -1.19836e-07   6.38752e-07 DIIS

  ==> Post-Iterations <==

    Orbital Energies (a.u.)
    -----------------------

    Doubly Occupied:                                                      

       1A    -20.575459     2A    -20.430815     3A    -11.388227  
       4A    -11.307503     5A    -11.276512     6A    -11.222052  
       7A    -11.215911     8A    -11.215632     9A    -11.194280  
      10A     -1.641225    11A     -1.342458    12A     -1.197161  
      13A     -1.084463    14A     -0.995872    15A     -0.957985  
      16A     -0.931708    17A     -0.817680    18A     -0.785441  
      19A     -0.727507    20A     -0.698016    21A     -0.694710  
      22A     -0.656038    23A     -0.602815    24A     -0.599161  
      25A     -0.591889    26A     -0.565050    27A     -0.559591  
      28A     -0.541486    29A     -0.517188    30A     -0.495650  
      31A     -0.467418    32A     -0.463003    33A     -0.454972  
      34A     -0.430174    35A     -0.363311    36A     -0.338253  

    Virtual:                                                              

      37A      0.220397    38A      0.237120    39A      0.252506  
      40A      0.275545    41A      0.285865    42A      0.294907  
      43A      0.305997    44A      0.311772    45A      0.319897  
      46A      0.326298    47A      0.336357    48A      0.341323  
      49A      0.356432    50A      0.382005    51A      0.389363  
      52A      0.406351    53A      0.429117    54A      0.438739  
      55A      0.453228    56A      0.471144    57A      0.496670  
      58A      0.596395    59A      0.643614    60A      0.704664  
      61A      0.719290    62A      0.726069    63A      0.746733  
      64A      0.756780    65A      0.772547    66A      0.802487  
      67A      0.843130    68A      0.875812    69A      0.893766  
      70A      0.908948    71A      0.923207    72A      0.930834  
      73A      0.977482    74A      0.996673    75A      1.003013  
      76A      1.023281    77A      1.063303    78A      1.081862  
      79A      1.107808    80A      1.124602    81A      1.141379  
      82A      1.150479    83A      1.168244    84A      1.176308  
      85A      1.190142    86A      1.191928    87A      1.202103  
      88A      1.220847    89A      1.234135    90A      1.240163  
      91A      1.242352    92A      1.256119    93A      1.278207  
      94A      1.304091    95A      1.339692    96A      1.399626  
      97A      1.439483    98A      1.498789    99A      1.538792  
     100A      1.547222   101A      1.623991   102A      1.679347  
     103A      1.727055   104A      1.738728   105A      1.759154  
     106A      1.784429   107A      1.810996   108A      1.884054  
     109A      1.911173   110A      1.957764   111A      2.017880  
     112A      2.024554   113A      2.066214   114A      2.089659  
     115A      2.126558   116A      2.148701   117A      2.191492  
     118A      2.224107   119A      2.240369   120A      2.264479  
     121A      2.285818   122A      2.333023   123A      2.360797  
     124A      2.375891   125A      2.397223   126A      2.420499  
     127A      2.455211   128A      2.460632   129A      2.534527  
     130A      2.568458   131A      2.605847   132A      2.624138  
     133A      2.641197   134A      2.653593   135A      2.692069  
     136A      2.712972   137A      2.724893   138A      2.751884  
     139A      2.789705   140A      2.820795   141A      2.840882  
     142A      2.876720   143A      2.933850   144A      2.987782  
     145A      3.018456   146A      3.055285   147A      3.085791  
     148A      3.119350   149A      3.167383   150A      3.330495  
     151A      3.391236   152A      3.496723   153A      3.570755  
     154A      4.563735   155A      4.680860   156A      4.740911  
     157A      4.803903   158A      4.910873   159A      4.982004  
     160A      5.002317   161A      5.082453   162A      5.122951  
     163A      6.014711  

    Final Occupation by Irrep:
              A 
    DOCC [    36 ]

  Energy converged.

  @DF-RHF Final Energy:  -421.68015070328511

   => Energetics <=

    Nuclear Repulsion Energy =            561.7486661468579996
    One-Electron Energy =               -1688.1644623519089237
    Two-Electron Energy =                 704.7356455017670669
    DFT Exchange-Correlation Energy =       0.0000000000000000
    Empirical Dispersion Energy =           0.0000000000000000
    PCM Polarization Energy =               0.0000000000000000
    EFP Energy =                            0.0000000000000000
    Total Energy =                       -421.6801507032837435

    Alert: EFP and PCM quantities not currently incorporated into SCF psivars.

Properties will be evaluated at   0.000000,   0.000000,   0.000000 Bohr
  ==> Properties <==


Properties computed using the SCF density matrix

  Nuclear Dipole Moment: (a.u.)
     X:    -0.2627      Y:    -1.1818      Z:    -2.7308

  Electronic Dipole Moment: (a.u.)
     X:    -0.3168      Y:     1.4493      Z:     1.7159

  Dipole Moment: (a.u.)
     X:    -0.5795      Y:     0.2676      Z:    -1.0150     Total:     1.1990

  Dipole Moment: (Debye)
     X:    -1.4730      Y:     0.6801      Z:    -2.5798     Total:     3.0475


  Saving occupied orbitals to File 180.

*** tstop() called on cx1-3-4-2.cx1.hpc.ic.ac.uk at Tue Jul  5 17:52:36 2016
Module time:
	user time   =      25.95 seconds =       0.43 minutes
	system time =       0.27 seconds =       0.00 minutes
	total time  =         27 seconds =       0.45 minutes
Total time:
	user time   =      25.95 seconds =       0.43 minutes
	system time =       0.27 seconds =       0.00 minutes
	total time  =         27 seconds =       0.45 minutes


Properties will be evaluated at   0.000000,   0.000000,   0.000000 Bohr

Properties computed using the  density matrix

  Nuclear Dipole Moment: (a.u.)
     X:    -0.2627      Y:    -1.1818      Z:    -2.7308

  Electronic Dipole Moment: (a.u.)
     X:    -0.3168      Y:     1.4493      Z:     1.7159

  Dipole Moment: (a.u.)
     X:    -0.5795      Y:     0.2676      Z:    -1.0150     Total:     1.1990

  Dipole Moment: (Debye)
     X:    -1.4730      Y:     0.6801      Z:    -2.5798     Total:     3.0475

  Quadrupole Moment: (Debye Ang)
    XX:   -54.5055     YY:   -54.2073     ZZ:   -58.8005
    XY:     2.6295     XZ:    -1.4295     YZ:     2.8255

  Traceless Quadrupole Moment: (Debye Ang)
    XX:     1.3323     YY:     1.6305     ZZ:    -2.9627
    XY:     2.6295     XZ:    -1.4295     YZ:     2.8255

  Mulliken Charges: (a.u.)
   Center  Symbol    Alpha    Beta     Spin     Total
       1     O     4.39671  4.39671  0.00000 -0.79343
       2     C     2.95201  2.95201  0.00000  0.09598
       3     C     3.29750  3.29750  0.00000 -0.59500
       4     O     4.33411  4.33411  0.00000 -0.66822
       5     H     0.40517  0.40517  0.00000  0.18966
       6     H     0.40836  0.40836  0.00000  0.18328
       7     H     0.40533  0.40533  0.00000  0.18934
       8     C     3.01148  3.01148  0.00000 -0.02297
       9     C     3.19107  3.19107  0.00000 -0.38214
      10     H     0.41085  0.41085  0.00000  0.17830
      11     H     0.41335  0.41335  0.00000  0.17329
      12     C     3.15597  3.15597  0.00000 -0.31194
      13     H     0.36455  0.36455  0.00000  0.27091
      14     H     0.42730  0.42730  0.00000  0.14540
      15     C     3.15885  3.15885  0.00000 -0.31771
      16     H     0.42991  0.42991  0.00000  0.14018
      17     H     0.41397  0.41397  0.00000  0.17205
      18     C     3.18824  3.18824  0.00000 -0.37649
      19     H     0.37626  0.37626  0.00000  0.24748
      20     H     0.41815  0.41815  0.00000  0.16370
      21     H     0.05077  0.05077  0.00000  0.89846
      22     H     0.40890  0.40890  0.00000  0.18221
      23     H     0.38117  0.38117  0.00000  0.23766

   Total alpha = 36.00000, Total beta = 36.00000, Total charge = -0.00000


*** PSI4 exiting successfully. Buy a developer a beer!
