    -----------------------------------------------------------------------
          Psi4: An Open-Source Ab Initio Electronic Structure Package
                              Psi4 (no tag) Driver

                          Git: Rev {detached?}  

    J. M. Turney, A. C. Simmonett, R. M. Parrish, E. G. Hohenstein,
    F. A. Evangelista, J. T. Fermann, B. J. Mintz, L. A. Burns, J. J. Wilke,
    M. L. Abrams, N. J. Russ, M. L. Leininger, C. L. Janssen, E. T. Seidl,
    W. D. Allen, H. F. Schaefer, R. A. King, E. F. Valeev, C. D. Sherrill,
    and T. D. Crawford, WIREs Comput. Mol. Sci. 2, 556-565 (2012)
    (doi: 10.1002/wcms.93)

                         Additional Contributions by
    A. E. DePrince, M. Saitow, U. Bozkaya, A. Yu. Sokolov
    -----------------------------------------------------------------------


    Psi4 started on: Tue Jul  5 16:40:56 2016

    Process ID:  12659
    PSI4DATADIR: /export131/home/mjharvey/miniconda3/share
    Memory level set to 256.000 MB

  ==> Input File <==

--------------------------------------------------------------------------
set {
	reference rhf
	basis 6-31G*
}


set_num_threads( 1 )
memory 2 gb

molecule MOL {
0 1

H	 -0.001000	 1.944000	 0.766000
O	 -0.000000	 1.854000	 -0.180000
C	 0.000000	 0.518000	 -0.536000
C	 -1.279000	 -0.150000	 -0.043000
C	 1.279000	 -0.150000	 -0.043000
H	 0.000000	 0.465000	 -1.615000
F	 -2.324000	 0.440000	 -0.583000
F	 -1.326000	 -1.428000	 -0.354000
F	 -1.389000	 -0.042000	 1.272000
F	 2.324000	 0.440000	 -0.583000
F	 1.326000	 -1.428000	 -0.354000
F	 1.389000	 -0.042000	 1.272000

	symmetry c1
}
ee = optimize('scf')
oeprop('DIPOLE', 'QUADRUPOLE', 'MULLIKEN_CHARGES')
f=open( 'psi4out.xyz', 'w' )
f.write( "12  " )
f.write( str(ee) + "\n" )
f.write( MOL.save_string_xyz() )
f.close()
--------------------------------------------------------------------------

  Memory set to   2.000 GiB by Python script.
gradient() will perform analytic gradient computation.

*** tstart() called on cx1-3-4-4.cx1.hpc.ic.ac.uk
*** at Tue Jul  5 16:40:57 2016


         ---------------------------------------------------------
                                   SCF
            by Justin Turney, Rob Parrish, and Andy Simmonett
                              RHF Reference
                        1 Threads,   2000 MiB Core
         ---------------------------------------------------------

  ==> Geometry <==

    Molecular point group: c1
    Full point group: C1

    Geometry (in Angstrom), charge = 0, multiplicity = 1:

       Center              X                  Y                   Z               Mass       
    ------------   -----------------  -----------------  -----------------  -----------------
           H         -0.000994001077     1.970418228799     0.756891707658     1.007825032070
           O          0.000005998923     1.880418228799    -0.189108292342    15.994914619560
           C          0.000005998923     0.544418228799    -0.545108292342    12.000000000000
           C         -1.278994001077    -0.123581771201    -0.052108292342    12.000000000000
           C          1.279005998923    -0.123581771201    -0.052108292342    12.000000000000
           H          0.000005998923     0.491418228799    -1.624108292342     1.007825032070
           F         -2.323994001077     0.466418228799    -0.592108292342    18.998403224000
           F         -1.325994001077    -1.401581771201    -0.363108292342    18.998403224000
           F         -1.388994001077    -0.015581771201     1.262891707658    18.998403224000
           F          2.324005998923     0.466418228799    -0.592108292342    18.998403224000
           F          1.326005998923    -1.401581771201    -0.363108292342    18.998403224000
           F          1.389005998923    -0.015581771201     1.262891707658    18.998403224000

  Running in c1 symmetry.

  Rotational constants: A =      0.07206  B =      0.03579  C =      0.03168 [cm^-1]
  Rotational constants: A =   2160.42937  B =   1073.06851  C =    949.68754 [MHz]
  Nuclear repulsion =  670.458007934358648

  Charge       = 0
  Multiplicity = 1
  Electrons    = 82
  Nalpha       = 41
  Nbeta        = 41

  ==> Algorithm <==

  SCF Algorithm Type is DF.
  DIIS enabled.
  MOM disabled.
  Fractional occupation disabled.
  Guess Type is CORE.
  Energy threshold   = 1.00e-08
  Density threshold  = 1.00e-08
  Integral threshold = 0.00e+00

  ==> Primary Basis <==

  Basis Set: 6-31G*
    Number of shells: 64
    Number of basis function: 154
    Number of Cartesian functions: 154
    Spherical Harmonics?: false
    Max angular momentum: 2

  ==> Pre-Iterations <==

   -------------------------------------------------------
    Irrep   Nso     Nmo     Nalpha   Nbeta   Ndocc  Nsocc
   -------------------------------------------------------
     A        154     154       0       0       0       0
   -------------------------------------------------------
    Total     154     154      41      41      41       0
   -------------------------------------------------------

 OEINTS: Overlap, kinetic, potential, dipole, and quadrupole integrals
         stored in file 35.

  ==> Integral Setup <==

  ==> DFJK: Density-Fitted J/K Matrices <==

    J tasked:                  Yes
    K tasked:                  Yes
    wK tasked:                  No
    OpenMP threads:              1
    Integrals threads:           1
    Memory (MB):              1430
    Algorithm:                Core
    Integral Cache:           NONE
    Schwarz Cutoff:          1E-12
    Fitting Condition:       1E-12

   => Auxiliary Basis Set <=

  Basis Set: 
    Number of shells: 258
    Number of basis function: 860
    Number of Cartesian functions: 860
    Spherical Harmonics?: false
    Max angular momentum: 3

  Minimum eigenvalue in the overlap matrix is 1.6855203869E-03.
  Using Symmetric Orthogonalization.
  SCF Guess: Core (One-Electron) Hamiltonian.

  ==> Iterations <==

                           Total Energy        Delta E     RMS |[F,P]|

   @DF-RHF iter   1:  -699.49630419279310   -6.99496e+02   6.85370e-02 
   @DF-RHF iter   2:  -545.48137522662046    1.54015e+02   8.62584e-02 DIIS
   @DF-RHF iter   3:  -743.59090860748256   -1.98110e+02   4.04726e-02 DIIS
   @DF-RHF iter   4:  -713.20221142318769    3.03887e+01   6.61210e-02 DIIS
   @DF-RHF iter   5:  -784.83116852048738   -7.16290e+01   1.25504e-02 DIIS
   @DF-RHF iter   6:  -786.07679800496385   -1.24563e+00   4.89518e-03 DIIS
   @DF-RHF iter   7:  -786.24479008236426   -1.67992e-01   1.66269e-03 DIIS
   @DF-RHF iter   8:  -786.27649424685160   -3.17042e-02   3.14145e-04 DIIS
   @DF-RHF iter   9:  -786.27787839442408   -1.38415e-03   1.28189e-04 DIIS
   @DF-RHF iter  10:  -786.27806180028097   -1.83406e-04   3.77184e-05 DIIS
   @DF-RHF iter  11:  -786.27808653557054   -2.47353e-05   1.10695e-05 DIIS
   @DF-RHF iter  12:  -786.27808862973006   -2.09416e-06   4.20461e-06 DIIS
   @DF-RHF iter  13:  -786.27808890106280   -2.71333e-07   7.60260e-07 DIIS
   @DF-RHF iter  14:  -786.27808891408677   -1.30240e-08   1.94181e-07 DIIS
   @DF-RHF iter  15:  -786.27808891483255   -7.45786e-10   6.94903e-08 DIIS
   @DF-RHF iter  16:  -786.27808891490008   -6.75300e-11   1.96977e-08 DIIS
   @DF-RHF iter  17:  -786.27808891490577   -5.68434e-12   4.39115e-09 DIIS

  ==> Post-Iterations <==

    Orbital Energies (a.u.)
    -----------------------

    Doubly Occupied:                                                      

       1A    -26.362668     2A    -26.362629     3A    -26.361888  
       4A    -26.361871     5A    -26.358347     6A    -26.358321  
       7A    -20.617150     8A    -11.526011     9A    -11.525980  
      10A    -11.349498    11A     -1.764644    12A     -1.758711  
      13A     -1.661976    14A     -1.657882    15A     -1.656728  
      16A     -1.655390    17A     -1.435333    18A     -1.102017  
      19A     -0.997024    20A     -0.938474    21A     -0.863687  
      22A     -0.862816    23A     -0.852027    24A     -0.844292  
      25A     -0.831932    26A     -0.815988    27A     -0.743652  
      28A     -0.726981    29A     -0.724369    30A     -0.717506  
      31A     -0.689007    32A     -0.686224    33A     -0.683392  
      34A     -0.674389    35A     -0.670038    36A     -0.663095  
      37A     -0.656584    38A     -0.653211    39A     -0.620551  
      40A     -0.551629    41A     -0.506257  

    Virtual:                                                              

      42A      0.217313    43A      0.242497    44A      0.295596  
      45A      0.343377    46A      0.357969    47A      0.401360  
      48A      0.452148    49A      0.461565    50A      0.463066  
      51A      0.530688    52A      0.538038    53A      0.663338  
      54A      0.672925    55A      0.717025    56A      0.731622  
      57A      0.743680    58A      0.791164    59A      0.792926  
      60A      0.838851    61A      0.908586    62A      0.949165  
      63A      1.057736    64A      1.111394    65A      1.126247  
      66A      1.163262    67A      1.242985    68A      1.247206  
      69A      1.277979    70A      1.327276    71A      1.346846  
      72A      1.363798    73A      1.366071    74A      1.382623  
      75A      1.454992    76A      1.455939    77A      1.512883  
      78A      1.579311    79A      1.584206    80A      1.589356  
      81A      1.609609    82A      1.612857    83A      1.624116  
      84A      1.641678    85A      1.657212    86A      1.659620  
      87A      1.660962    88A      1.669961    89A      1.700732  
      90A      1.732134    91A      1.738719    92A      1.778410  
      93A      1.864598    94A      1.886243    95A      1.896688  
      96A      1.939256    97A      1.970084    98A      1.977039  
      99A      1.978126   100A      2.097914   101A      2.106782  
     102A      2.114769   103A      2.122044   104A      2.137505  
     105A      2.139710   106A      2.147682   107A      2.169879  
     108A      2.192168   109A      2.288133   110A      2.296712  
     111A      2.317526   112A      2.330402   113A      2.341217  
     114A      2.352047   115A      2.391782   116A      2.400152  
     117A      2.400364   118A      2.423336   119A      2.449075  
     120A      2.474067   121A      2.534675   122A      2.552068  
     123A      2.591280   124A      2.608663   125A      2.669773  
     126A      2.690618   127A      2.710212   128A      2.787761  
     129A      2.878572   130A      2.907548   131A      2.959596  
     132A      3.056452   133A      3.139827   134A      3.176465  
     135A      3.195231   136A      3.236058   137A      3.267271  
     138A      3.339788   139A      3.402425   140A      3.415570  
     141A      3.444170   142A      3.450072   143A      3.452551  
     144A      3.477322   145A      4.184053   146A      4.624964  
     147A      4.752208   148A      4.811420   149A      5.042615  
     150A      5.087870   151A      5.313546   152A      5.642956  
     153A      5.830652   154A      6.347488  

    Final Occupation by Irrep:
              A 
    DOCC [    41 ]

  Energy converged.

  @DF-RHF Final Energy:  -786.27808891490577

   => Energetics <=

    Nuclear Repulsion Energy =            670.4580079343586476
    One-Electron Energy =               -2427.7718588672382793
    Two-Electron Energy =                 971.0357620179715923
    DFT Exchange-Correlation Energy =       0.0000000000000000
    Empirical Dispersion Energy =           0.0000000000000000
    PCM Polarization Energy =               0.0000000000000000
    EFP Energy =                            0.0000000000000000
    Total Energy =                       -786.2780889149080394

    Alert: EFP and PCM quantities not currently incorporated into SCF psivars.

Properties will be evaluated at   0.000000,   0.000000,   0.000000 Bohr
  ==> Properties <==


Properties computed using the SCF density matrix

  Nuclear Dipole Moment: (a.u.)
     X:    -0.0010      Y:     4.1107      Z:    -1.3944

  Electronic Dipole Moment: (a.u.)
     X:     0.0002      Y:    -3.9469      Z:     1.3759

  Dipole Moment: (a.u.)
     X:    -0.0008      Y:     0.1638      Z:    -0.0185     Total:     0.1648

  Dipole Moment: (Debye)
     X:    -0.0019      Y:     0.4163      Z:    -0.0471     Total:     0.4190


  Saving occupied orbitals to File 180.

*** tstop() called on cx1-3-4-4.cx1.hpc.ic.ac.uk at Tue Jul  5 16:41:15 2016
Module time:
	user time   =      16.96 seconds =       0.28 minutes
	system time =       0.22 seconds =       0.00 minutes
	total time  =         18 seconds =       0.30 minutes
Total time:
	user time   =      16.96 seconds =       0.28 minutes
	system time =       0.22 seconds =       0.00 minutes
	total time  =         18 seconds =       0.30 minutes

*** tstart() called on cx1-3-4-4.cx1.hpc.ic.ac.uk
*** at Tue Jul  5 16:41:15 2016


         ------------------------------------------------------------
                                   SCF GRAD                          
                          Rob Parrish, Justin Turney,                
                       Andy Simmonett, and Alex Sokolov              
         ------------------------------------------------------------

  ==> Geometry <==

    Molecular point group: c1
    Full point group: C1

    Geometry (in Angstrom), charge = 0, multiplicity = 1:

       Center              X                  Y                   Z               Mass       
    ------------   -----------------  -----------------  -----------------  -----------------
           H         -0.000994001077     1.970418228799     0.756891707658     1.007825032070
           O          0.000005998923     1.880418228799    -0.189108292342    15.994914619560
           C          0.000005998923     0.544418228799    -0.545108292342    12.000000000000
           C         -1.278994001077    -0.123581771201    -0.052108292342    12.000000000000
           C          1.279005998923    -0.123581771201    -0.052108292342    12.000000000000
           H          0.000005998923     0.491418228799    -1.624108292342     1.007825032070
           F         -2.323994001077     0.466418228799    -0.592108292342    18.998403224000
           F         -1.325994001077    -1.401581771201    -0.363108292342    18.998403224000
           F         -1.388994001077    -0.015581771201     1.262891707658    18.998403224000
           F          2.324005998923     0.466418228799    -0.592108292342    18.998403224000
           F          1.326005998923    -1.401581771201    -0.363108292342    18.998403224000
           F          1.389005998923    -0.015581771201     1.262891707658    18.998403224000

  Nuclear repulsion =  670.458007934358534

  ==> Basis Set <==

  Basis Set: 6-31G*
    Number of shells: 64
    Number of basis function: 154
    Number of Cartesian functions: 154
    Spherical Harmonics?: false
    Max angular momentum: 2

  ==> DFJKGrad: Density-Fitted SCF Gradients <==

    Gradient:                    1
    J tasked:                  Yes
    K tasked:                  Yes
    wK tasked:                  No
    OpenMP threads:              1
    Integrals threads:           1
    Memory (MB):              1430
    Schwarz Cutoff:          0E+00
    Fitting Condition:       1E-12

   => Auxiliary Basis Set <=

  Basis Set: 
    Number of shells: 258
    Number of basis function: 860
    Number of Cartesian functions: 860
    Spherical Harmonics?: false
    Max angular momentum: 3


  -Total Gradient:
     Atom            X                  Y                   Z
    ------   -----------------  -----------------  -----------------
       1       -0.000011154418    -0.000024994851    -0.000154306678
       2        0.000007698418     0.000488402541     0.000207062045
       3        0.000004207158    -0.000905793674     0.000557494430
       4        0.000090478957     0.000232419492    -0.000795660225
       5       -0.000096223761     0.000211956520    -0.000820817632
       6       -0.000000712812     0.000062386172    -0.000258015921
       7       -0.000238092924     0.000062968341     0.000015023903
       8        0.000068768637     0.000014742792     0.000206195942
       9       -0.000008285220    -0.000117096887     0.000404063444
      10        0.000241056082     0.000065289915     0.000018546177
      11       -0.000068182855     0.000020558552     0.000210030185
      12        0.000010442749    -0.000110838920     0.000410384336


*** tstop() called on cx1-3-4-4.cx1.hpc.ic.ac.uk at Tue Jul  5 16:41:33 2016
Module time:
	user time   =      18.11 seconds =       0.30 minutes
	system time =       0.17 seconds =       0.00 minutes
	total time  =         18 seconds =       0.30 minutes
Total time:
	user time   =      35.08 seconds =       0.58 minutes
	system time =       0.39 seconds =       0.01 minutes
	total time  =         36 seconds =       0.60 minutes
CURRENT ENERGY: -786.2780889149

			-----------------------------------------
			 OPTKING 2.0: for geometry optimizations 
			  - R.A. King,  Bethel University        
			-----------------------------------------

	Internal coordinates to be generated automatically.
	Detected frag with atoms:  1 2 3 4 5 6 7 8 9 10 11 12
	---Fragment 1 Bond Connectivity---
	 1 : 2
	 2 : 1 3
	 3 : 2 4 5 6
	 4 : 3 7 8 9
	 5 : 3 10 11 12
	 6 : 3
	 7 : 4
	 8 : 4
	 9 : 4
	 10 : 5
	 11 : 5
	 12 : 5

	---Fragment 1 Geometry and Gradient---
	 H          -0.0018783898        3.7235508197        1.4303180397
	 O           0.0000113363        3.5534754677       -0.3573628820
	 C           0.0000113363        1.0288013542       -1.0301053853
	 C          -2.4169483876       -0.2335357026       -0.0984704018
	 C           2.4169710603       -0.2335357026       -0.0984704018
	 H           0.0000113363        0.9286458691       -3.0691198827
	 F          -4.3917121965        0.8814027158       -1.1189225135
	 F          -2.5057655159       -2.6486057004       -0.6861752291
	 F          -2.6248182623       -0.0294452802        2.3865194630
	 F           4.3917348691        0.8814027158       -1.1189225135
	 F           2.5057881885       -2.6486057004       -0.6861752291
	 F           2.6248409349       -0.0294452802        2.3865194630
	            -0.0000111544       -0.0000249949       -0.0001543067
	             0.0000076984        0.0004884025        0.0002070620
	             0.0000042072       -0.0009057937        0.0005574944
	             0.0000904790        0.0002324195       -0.0007956602
	            -0.0000962238        0.0002119565       -0.0008208176
	            -0.0000007128        0.0000623862       -0.0002580159
	            -0.0002380929        0.0000629683        0.0000150239
	             0.0000687686        0.0000147428        0.0002061959
	            -0.0000082852       -0.0001170969        0.0004040634
	             0.0002410561        0.0000652899        0.0000185462
	            -0.0000681829        0.0000205586        0.0002100302
	             0.0000104427       -0.0001108389        0.0004103843

	Previous optimization step data not found.  Starting new optimization.

	---Fragment 1 Intrafragment Coordinates---
	 - Coordinate -           - BOHR/RAD -       - ANG/DEG -
	 R(1,2)           =         1.795754	       0.950272
	 R(2,3)           =         2.612769	       1.382618
	 R(3,4)           =         2.881516	       1.524833
	 R(3,5)           =         2.881516	       1.524833
	 R(3,6)           =         2.041473	       1.080301
	 R(4,7)           =         2.486786	       1.315950
	 R(4,8)           =         2.487137	       1.316136
	 R(4,9)           =         2.502007	       1.324005
	 R(5,10)          =         2.486786	       1.315950
	 R(5,11)          =         2.487137	       1.316136
	 R(5,12)          =         2.502007	       1.324005
	 B(1,2,3)         =         1.926064	     110.355343
	 B(2,3,4)         =         1.917780	     109.880672
	 B(2,3,5)         =         1.917780	     109.880672
	 B(2,3,6)         =         1.880292	     107.732823
	 B(3,4,7)         =         1.914519	     109.693887
	 B(3,4,8)         =         1.959449	     112.268171
	 B(3,4,9)         =         1.933783	     110.797591
	 B(3,5,10)        =         1.914519	     109.693887
	 B(3,5,11)        =         1.959449	     112.268171
	 B(3,5,12)        =         1.933783	     110.797591
	 B(4,3,5)         =         1.990080	     114.023171
	 B(4,3,6)         =         1.876991	     107.543660
	 B(5,3,6)         =         1.876991	     107.543660
	 B(7,4,8)         =         1.886022	     108.061125
	 B(7,4,9)         =         1.880747	     107.758889
	 B(8,4,9)         =         1.886969	     108.115339
	 B(10,5,11)       =         1.886022	     108.061125
	 B(10,5,12)       =         1.880747	     107.758889
	 B(11,5,12)       =         1.886969	     108.115339
	 D(1,2,3,4)       =         1.100490	      63.053431
	 D(1,2,3,5)       =        -1.102735	     -63.182051
	 D(1,2,3,6)       =         3.140470	     179.935690
	 D(2,3,4,7)       =         1.047886	      60.039452
	 D(2,3,4,8)       =        -3.138134	    -179.801849
	 D(2,3,4,9)       =        -1.026406	     -58.808728
	 D(2,3,5,10)      =        -1.047886	     -60.039452
	 D(2,3,5,11)      =         3.138134	     179.801849
	 D(2,3,5,12)      =         1.026406	      58.808728
	 D(4,3,5,10)      =         3.073634	     176.106278
	 D(4,3,5,11)      =         0.976469	      55.947578
	 D(4,3,5,12)      =        -1.135259	     -65.045543
	 D(5,3,4,7)       =        -3.073634	    -176.106278
	 D(5,3,4,8)       =        -0.976469	     -55.947578
	 D(5,3,4,9)       =         1.135259	      65.045543
	 D(6,3,4,7)       =        -0.994160	     -56.961147
	 D(6,3,4,8)       =         1.103005	      63.197552
	 D(6,3,4,9)       =        -3.068452	    -175.809327
	 D(6,3,5,10)      =         0.994160	      56.961147
	 D(6,3,5,11)      =        -1.103005	     -63.197552
	 D(6,3,5,12)      =         3.068452	     175.809327
	 R(8,11)          =         5.011554	       2.652000
	 R(9,12)          =         5.249659	       2.778000

	Current energy   :      -786.2780889149

	Generating empirical Hessian (Schlegel '84) for each fragment.
	Taking RFO optimization step.
	Going to follow RFO solution 1.
	Using RFO vector 1.
	Norm of target step-size    0.00680
	Projected energy change by RFO approximation:         0.0000007508

	Back-transformation to cartesian coordinates...
	Successfully converged to displaced geometry.

	--- Internal Coordinate Step in ANG or DEG, aJ/ANG or AJ/DEG ---
	 ---------------------------------------------------------------------------
	   Coordinate                Previous        Force       Change         New 
	   ----------                --------       ------       ------       ------
	    1 R(1,2)          =      0.950272     0.001285     0.000143     0.950415
	    2 R(2,3)          =      1.382618    -0.003801    -0.000502     1.382116
	    3 R(3,4)          =      1.524833     0.000649     0.000100     1.524932
	    4 R(3,5)          =      1.524833     0.000658     0.000101     1.524934
	    5 R(3,6)          =      1.080301    -0.002098    -0.000375     1.079926
	    6 R(4,7)          =      1.315950    -0.001739    -0.000177     1.315773
	    7 R(4,8)          =      1.316136     0.000540     0.000055     1.316191
	    8 R(4,9)          =      1.324005    -0.003224    -0.000341     1.323664
	    9 R(5,10)         =      1.315950    -0.001756    -0.000179     1.315771
	   10 R(5,11)         =      1.316136     0.000594     0.000060     1.316196
	   11 R(5,12)         =      1.324005    -0.003281    -0.000347     1.323658
	   12 B(1,2,3)        =    110.355343     0.000001     0.006605   110.361949
	   13 B(2,3,4)        =    109.880672     0.000003     0.005656   109.886328
	   14 B(2,3,5)        =    109.880672     0.000002     0.001819   109.882491
	   15 B(2,3,6)        =    107.732823     0.000001     0.059147   107.791969
	   16 B(3,4,7)        =    109.693887    -0.000018    -0.085142   109.608745
	   17 B(3,4,8)        =    112.268171     0.000001     0.009907   112.278078
	   18 B(3,4,9)        =    110.797591     0.000001     0.019650   110.817241
	   19 B(3,5,10)       =    109.693887    -0.000019    -0.085628   109.608259
	   20 B(3,5,11)       =    112.268171     0.000001     0.008001   112.276172
	   21 B(3,5,12)       =    110.797591     0.000001     0.021372   110.818963
	   22 B(4,3,5)        =    114.023171    -0.000010    -0.072730   113.950442
	   23 B(4,3,6)        =    107.543660     0.000002     0.006104   107.549764
	   24 B(5,3,6)        =    107.543660     0.000002     0.007732   107.551391
	   25 B(7,4,8)        =    108.061125     0.000000    -0.039615   108.021510
	   26 B(7,4,9)        =    107.758889     0.000005     0.000615   107.759504
	   27 B(8,4,9)        =    108.115339     0.000012     0.094763   108.210101
	   28 B(10,5,11)      =    108.061125     0.000000    -0.040666   108.020460
	   29 B(10,5,12)      =    107.758889     0.000005     0.003083   107.761973
	   30 B(11,5,12)      =    108.115339     0.000012     0.094129   108.209468
	   31 D(1,2,3,4)      =     63.053431    -0.000001     0.006276    63.059707
	   32 D(1,2,3,5)      =    -63.182051     0.000001     0.094052   -63.087999
	   33 D(1,2,3,6)      =    179.935690     0.000000     0.050235   179.985925
	   34 D(2,3,4,7)      =     60.039452     0.000001     0.072292    60.111744
	   35 D(2,3,4,8)      =   -179.801849    -0.000002    -0.029171  -179.831019
	   36 D(2,3,4,9)      =    -58.808728     0.000002     0.113079   -58.695648
	   37 D(2,3,5,10)     =    -60.039452    -0.000001    -0.045305   -60.084757
	   38 D(2,3,5,11)     =    179.801849     0.000002     0.059048   179.860896
	   39 D(2,3,5,12)     =     58.808728    -0.000002    -0.082291    58.726437
	   40 D(4,3,5,10)     =    176.106278    -0.000001    -0.000820   176.105458
	   41 D(4,3,5,11)     =     55.947578     0.000002     0.103533    56.051111
	   42 D(4,3,5,12)     =    -65.045543    -0.000002    -0.037806   -65.083349
	   43 D(5,3,4,7)      =   -176.106278     0.000001     0.025735  -176.080543
	   44 D(5,3,4,8)      =    -55.947578    -0.000002    -0.075728   -56.023306
	   45 D(5,3,4,9)      =     65.045543     0.000002     0.066522    65.112065
	   46 D(6,3,4,7)      =    -56.961147     0.000000    -0.004754   -56.965901
	   47 D(6,3,4,8)      =     63.197552    -0.000003    -0.106216    63.091336
	   48 D(6,3,4,9)      =   -175.809327     0.000001     0.036034  -175.773293
	   49 D(6,3,5,10)     =     56.961147    -0.000000     0.030593    56.991740
	   50 D(6,3,5,11)     =    -63.197552     0.000003     0.134945   -63.062607
	   51 D(6,3,5,12)     =    175.809327    -0.000001    -0.006393   175.802933
	   52 R(8,11)         =      2.652000    -0.000005     0.000136     2.652136
	   53 R(9,12)         =      2.778000    -0.000115     0.000110     2.778110
	 ---------------------------------------------------------------------------

  ==> Convergence Check <==

  Measures of convergence in internal coordinates in au.
  Criteria marked as inactive (o), active & met (*), and active & unmet ( ).
  --------------------------------------------------------------------------------------------- ~
   Step     Total Energy     Delta E     MAX Force     RMS Force      MAX Disp      RMS Disp    ~
  --------------------------------------------------------------------------------------------- ~
    Convergence Criteria    1.00e-06 *    3.00e-04 *             o    1.20e-03 *             o  ~
  --------------------------------------------------------------------------------------------- ~
      1    -786.27808891   -7.86e+02      4.61e-04      1.43e-04 o    2.36e-03      9.35e-04 o  ~
  ---------------------------------------------------------------------------------------------

	Writing optimization data to binary file.
	Structure for next step:
	Cartesian Geometry (in Angstrom)
	    H    -0.0002688280   1.9699017404   0.7572198792
	    O    -0.0000657424   1.8800982548  -0.1889432606
	    C    -0.0000763603   0.5447033669  -0.5452643056
	    C    -1.2786107447  -0.1238856517  -0.0515473598
	    C     1.2785035692  -0.1238061204  -0.0515516662
	    H    -0.0000941915   0.4909719866  -1.6238530060
	    F    -2.3227870001   0.4661743272  -0.5926419433
	    F    -1.3259677896  -1.4017098023  -0.3634471273
	    F    -1.3892458222  -0.0145679532   1.2629470770
	    F     2.3226525716   0.4666699458  -0.5922408025
	    F     1.3261680894  -1.4014948123  -0.3639822724
	    F     1.3888642356  -0.0150363271   1.2630051960
			--------------------------
			 OPTKING Finished Execution 
			--------------------------

    Structure for next step:
    Molecular point group: c1
    Full point group: C1

    Geometry (in Angstrom), charge = 0, multiplicity = 1:

    H           -0.000211578807     1.969782624355     0.757325316488
    O           -0.000008493189     1.879979145575    -0.188837751052
    C           -0.000019111054     0.544584359687    -0.545158768862
    C           -1.278553397849    -0.124004607837    -0.051441860772
    C            1.278560720754    -0.123925076524    -0.051446167226
    H           -0.000036942264     0.490852983538    -1.623747386947
    F           -2.322729573559     0.466055325963    -0.592536402915
    F           -1.325910439163    -1.401828660857    -0.363341604423
    F           -1.389188466958    -0.014686917712     1.263052475660
    F            2.322709643428     0.466550944495    -0.592135262144
    F            1.326225237293    -1.401613670916    -0.363876749473
    F            1.388921378736    -0.015155291594     1.263110594598

gradient() will perform analytic gradient computation.

*** tstart() called on cx1-3-4-4.cx1.hpc.ic.ac.uk
*** at Tue Jul  5 16:41:34 2016


         ---------------------------------------------------------
                                   SCF
            by Justin Turney, Rob Parrish, and Andy Simmonett
                              RHF Reference
                        1 Threads,   2000 MiB Core
         ---------------------------------------------------------

  ==> Geometry <==

    Molecular point group: c1
    Full point group: C1

    Geometry (in Angstrom), charge = 0, multiplicity = 1:

       Center              X                  Y                   Z               Mass       
    ------------   -----------------  -----------------  -----------------  -----------------
           H         -0.000211578807     1.969782624355     0.757325316488     1.007825032070
           O         -0.000008493189     1.879979145575    -0.188837751052    15.994914619560
           C         -0.000019111054     0.544584359687    -0.545158768862    12.000000000000
           C         -1.278553397849    -0.124004607837    -0.051441860772    12.000000000000
           C          1.278560720754    -0.123925076524    -0.051446167226    12.000000000000
           H         -0.000036942264     0.490852983538    -1.623747386947     1.007825032070
           F         -2.322729573559     0.466055325963    -0.592536402915    18.998403224000
           F         -1.325910439163    -1.401828660857    -0.363341604423    18.998403224000
           F         -1.389188466958    -0.014686917712     1.263052475660    18.998403224000
           F          2.322709643428     0.466550944495    -0.592135262144    18.998403224000
           F          1.326225237293    -1.401613670916    -0.363876749473    18.998403224000
           F          1.388921378736    -0.015155291594     1.263110594598    18.998403224000

  Running in c1 symmetry.

  Rotational constants: A =      0.07206  B =      0.03581  C =      0.03169 [cm^-1]
  Rotational constants: A =   2160.20671  B =   1073.52643  C =    950.14505 [MHz]
  Nuclear repulsion =  670.541383617611132

  Charge       = 0
  Multiplicity = 1
  Electrons    = 82
  Nalpha       = 41
  Nbeta        = 41

  ==> Algorithm <==

  SCF Algorithm Type is DF.
  DIIS enabled.
  MOM disabled.
  Fractional occupation disabled.
  Guess Type is READ.
  Energy threshold   = 1.00e-08
  Density threshold  = 1.00e-08
  Integral threshold = 0.00e+00

  ==> Primary Basis <==

  Basis Set: 6-31G*
    Number of shells: 64
    Number of basis function: 154
    Number of Cartesian functions: 154
    Spherical Harmonics?: false
    Max angular momentum: 2

  ==> Pre-Iterations <==

   -------------------------------------------------------
    Irrep   Nso     Nmo     Nalpha   Nbeta   Ndocc  Nsocc
   -------------------------------------------------------
     A        154     154       0       0       0       0
   -------------------------------------------------------
    Total     154     154      41      41      41       0
   -------------------------------------------------------

 OEINTS: Overlap, kinetic, potential, dipole, and quadrupole integrals
         stored in file 35.

  ==> Integral Setup <==

  ==> DFJK: Density-Fitted J/K Matrices <==

    J tasked:                  Yes
    K tasked:                  Yes
    wK tasked:                  No
    OpenMP threads:              1
    Integrals threads:           1
    Memory (MB):              1430
    Algorithm:                Core
    Integral Cache:           NONE
    Schwarz Cutoff:          1E-12
    Fitting Condition:       1E-12

   => Auxiliary Basis Set <=

  Basis Set: 
    Number of shells: 258
    Number of basis function: 860
    Number of Cartesian functions: 860
    Spherical Harmonics?: false
    Max angular momentum: 3

  Minimum eigenvalue in the overlap matrix is 1.6829549746E-03.
  Using Symmetric Orthogonalization.
  SCF Guess: Reading in previously saved MOs, projecting if necessary.

  Using orbitals from previous SCF, no projection.
  Recomputing DOCC and SOCC from number of alpha and beta electrons from previous calculation.
              A 
    DOCC [    41 ]

  ==> Iterations <==

                           Total Energy        Delta E     RMS |[F,P]|

   @DF-RHF iter   0:  -786.27915488944711   -7.86279e+02   2.67159e-05 
   @DF-RHF iter   1:  -786.27808991981112    1.06497e-03   5.18984e-06 
   @DF-RHF iter   2:  -786.27809029878938   -3.78978e-07   2.62621e-06 DIIS
   @DF-RHF iter   3:  -786.27809037160785   -7.28185e-08   9.77345e-07 DIIS
   @DF-RHF iter   4:  -786.27809039315764   -2.15498e-08   1.63917e-07 DIIS
   @DF-RHF iter   5:  -786.27809039384749   -6.89852e-10   4.22796e-08 DIIS
   @DF-RHF iter   6:  -786.27809039388910   -4.16094e-11   1.42671e-08 DIIS
   @DF-RHF iter   7:  -786.27809039389228   -3.18323e-12   3.93239e-09 DIIS

  ==> Post-Iterations <==

    Orbital Energies (a.u.)
    -----------------------

    Doubly Occupied:                                                      

       1A    -26.362860     2A    -26.362856     3A    -26.361882  
       4A    -26.361867     5A    -26.358143     6A    -26.358137  
       7A    -20.617119     8A    -11.525867     9A    -11.525849  
      10A    -11.349305    11A     -1.764720    12A     -1.758784  
      13A     -1.662161    14A     -1.657845    15A     -1.656944  
      16A     -1.655323    17A     -1.435448    18A     -1.101933  
      19A     -0.996976    20A     -0.938506    21A     -0.863716  
      22A     -0.862862    23A     -0.852123    24A     -0.844457  
      25A     -0.831879    26A     -0.816083    27A     -0.743752  
      28A     -0.726911    29A     -0.724355    30A     -0.717595  
      31A     -0.689188    32A     -0.686250    33A     -0.683314  
      34A     -0.674579    35A     -0.670033    36A     -0.663089  
      37A     -0.656577    38A     -0.653367    39A     -0.620384  
      40A     -0.551618    41A     -0.506039  

    Virtual:                                                              

      42A      0.217393    43A      0.242685    44A      0.295857  
      45A      0.343548    46A      0.358385    47A      0.401632  
      48A      0.452109    49A      0.461347    50A      0.462870  
      51A      0.530974    52A      0.538548    53A      0.663288  
      54A      0.672944    55A      0.717129    56A      0.731727  
      57A      0.743956    58A      0.791201    59A      0.793088  
      60A      0.838987    61A      0.908569    62A      0.949330  
      63A      1.057761    64A      1.111641    65A      1.126307  
      66A      1.163277    67A      1.243006    68A      1.247133  
      69A      1.277854    70A      1.327283    71A      1.346948  
      72A      1.363859    73A      1.365908    74A      1.382804  
      75A      1.454862    76A      1.455765    77A      1.512798  
      78A      1.579146    79A      1.584333    80A      1.589993  
      81A      1.609778    82A      1.613028    83A      1.623996  
      84A      1.641781    85A      1.657187    86A      1.659565  
      87A      1.660971    88A      1.670395    89A      1.700523  
      90A      1.732268    91A      1.738632    92A      1.778835  
      93A      1.864416    94A      1.886219    95A      1.896932  
      96A      1.939410    97A      1.970223    98A      1.977408  
      99A      1.978286   100A      2.098033   101A      2.106735  
     102A      2.114464   103A      2.122118   104A      2.137613  
     105A      2.139680   106A      2.147889   107A      2.170389  
     108A      2.192592   109A      2.288516   110A      2.296727  
     111A      2.317138   112A      2.330867   113A      2.340929  
     114A      2.351441   115A      2.392145   116A      2.400331  
     117A      2.400713   118A      2.423251   119A      2.449195  
     120A      2.474741   121A      2.534985   122A      2.553027  
     123A      2.591541   124A      2.608375   125A      2.670898  
     126A      2.691324   127A      2.710841   128A      2.788356  
     129A      2.878408   130A      2.908677   131A      2.959917  
     132A      3.056087   133A      3.140595   134A      3.177373  
     135A      3.195371   136A      3.236502   137A      3.267103  
     138A      3.339835   139A      3.402385   140A      3.415502  
     141A      3.444410   142A      3.450525   143A      3.452995  
     144A      3.477649   145A      4.184576   146A      4.625713  
     147A      4.752960   148A      4.812087   149A      5.044069  
     150A      5.088731   151A      5.316911   152A      5.641625  
     153A      5.832762   154A      6.345429  

    Final Occupation by Irrep:
              A 
    DOCC [    41 ]

  Energy converged.

  @DF-RHF Final Energy:  -786.27809039389228

   => Energetics <=

    Nuclear Repulsion Energy =            670.5413836176111317
    One-Electron Energy =               -2427.9375576003426431
    Two-Electron Energy =                 971.1180835888385445
    DFT Exchange-Correlation Energy =       0.0000000000000000
    Empirical Dispersion Energy =           0.0000000000000000
    PCM Polarization Energy =               0.0000000000000000
    EFP Energy =                            0.0000000000000000
    Total Energy =                       -786.2780903938928532

    Alert: EFP and PCM quantities not currently incorporated into SCF psivars.

Properties will be evaluated at   0.000000,   0.000000,   0.000000 Bohr
  ==> Properties <==


Properties computed using the SCF density matrix

  Nuclear Dipole Moment: (a.u.)
     X:    -0.0003      Y:     4.1088      Z:    -1.3926

  Electronic Dipole Moment: (a.u.)
     X:     0.0001      Y:    -3.9461      Z:     1.3777

  Dipole Moment: (a.u.)
     X:    -0.0002      Y:     0.1628      Z:    -0.0149     Total:     0.1634

  Dipole Moment: (Debye)
     X:    -0.0004      Y:     0.4137      Z:    -0.0379     Total:     0.4154


  Saving occupied orbitals to File 180.

*** tstop() called on cx1-3-4-4.cx1.hpc.ic.ac.uk at Tue Jul  5 16:41:46 2016
Module time:
	user time   =      11.85 seconds =       0.20 minutes
	system time =       0.12 seconds =       0.00 minutes
	total time  =         12 seconds =       0.20 minutes
Total time:
	user time   =      47.02 seconds =       0.78 minutes
	system time =       0.53 seconds =       0.01 minutes
	total time  =         49 seconds =       0.82 minutes

*** tstart() called on cx1-3-4-4.cx1.hpc.ic.ac.uk
*** at Tue Jul  5 16:41:46 2016


         ------------------------------------------------------------
                                   SCF GRAD                          
                          Rob Parrish, Justin Turney,                
                       Andy Simmonett, and Alex Sokolov              
         ------------------------------------------------------------

  ==> Geometry <==

    Molecular point group: c1
    Full point group: C1

    Geometry (in Angstrom), charge = 0, multiplicity = 1:

       Center              X                  Y                   Z               Mass       
    ------------   -----------------  -----------------  -----------------  -----------------
           H         -0.000211578807     1.969782624355     0.757325316488     1.007825032070
           O         -0.000008493189     1.879979145575    -0.188837751052    15.994914619560
           C         -0.000019111054     0.544584359687    -0.545158768862    12.000000000000
           C         -1.278553397849    -0.124004607837    -0.051441860772    12.000000000000
           C          1.278560720754    -0.123925076524    -0.051446167226    12.000000000000
           H         -0.000036942264     0.490852983538    -1.623747386947     1.007825032070
           F         -2.322729573559     0.466055325963    -0.592536402915    18.998403224000
           F         -1.325910439163    -1.401828660857    -0.363341604423    18.998403224000
           F         -1.389188466958    -0.014686917712     1.263052475660    18.998403224000
           F          2.322709643428     0.466550944495    -0.592135262144    18.998403224000
           F          1.326225237293    -1.401613670916    -0.363876749473    18.998403224000
           F          1.388921378736    -0.015155291594     1.263110594598    18.998403224000

  Nuclear repulsion =  670.541383617611132

  ==> Basis Set <==

  Basis Set: 6-31G*
    Number of shells: 64
    Number of basis function: 154
    Number of Cartesian functions: 154
    Spherical Harmonics?: false
    Max angular momentum: 2

  ==> DFJKGrad: Density-Fitted SCF Gradients <==

    Gradient:                    1
    J tasked:                  Yes
    K tasked:                  Yes
    wK tasked:                  No
    OpenMP threads:              1
    Integrals threads:           1
    Memory (MB):              1430
    Schwarz Cutoff:          0E+00
    Fitting Condition:       1E-12

   => Auxiliary Basis Set <=

  Basis Set: 
    Number of shells: 258
    Number of basis function: 860
    Number of Cartesian functions: 860
    Spherical Harmonics?: false
    Max angular momentum: 3


  -Total Gradient:
     Atom            X                  Y                   Z
    ------   -----------------  -----------------  -----------------
       1       -0.000000844738    -0.000018350469     0.000024643757
       2        0.000010657125     0.000121304093     0.000027237846
       3       -0.000008577704    -0.000103099516    -0.000148273987
       4        0.000033502456    -0.000117914072    -0.000053743431
       5       -0.000027361066    -0.000102578399    -0.000038495127
       6       -0.000003368510     0.000015243082    -0.000011396204
       7        0.000214412253    -0.000073835539     0.000043434689
       8       -0.000025377324     0.000023228423    -0.000143688604
       9       -0.000033002844     0.000155538085     0.000203890764
      10       -0.000214122675    -0.000074623293     0.000036312636
      11        0.000024603848     0.000026560077    -0.000144482322
      12        0.000029479158     0.000148527524     0.000204559994


*** tstop() called on cx1-3-4-4.cx1.hpc.ic.ac.uk at Tue Jul  5 16:42:09 2016
Module time:
	user time   =      22.55 seconds =       0.38 minutes
	system time =       0.19 seconds =       0.00 minutes
	total time  =         23 seconds =       0.38 minutes
Total time:
	user time   =      69.58 seconds =       1.16 minutes
	system time =       0.72 seconds =       0.01 minutes
	total time  =         72 seconds =       1.20 minutes
CURRENT ENERGY: -786.2780903939

			-----------------------------------------
			 OPTKING 2.0: for geometry optimizations 
			  - R.A. King,  Bethel University        
			-----------------------------------------

	Previous internal coordinate definitions found.
	---Fragment 1 Geometry and Gradient---
	 H          -0.0003998260        3.7223497013        1.4311374417
	 O          -0.0000160498        3.5526457207       -0.3568516330
	 C          -0.0000361147        1.0291152961       -1.0302007721
	 C          -2.4161157682       -0.2343347480       -0.0972110286
	 C           2.4161296065       -0.2341844556       -0.0972191666
	 H          -0.0000698108        0.9275777104       -3.0684378703
	 F          -4.3893227748        0.8807169288       -1.1197315253
	 F          -2.5056076068       -2.6490722542       -0.6866161250
	 F          -2.6251857495       -0.0277542522        2.3868232705
	 F           4.3892851123        0.8816535121       -1.1189734791
	 F           2.5062024890       -2.6486659821       -0.6876274026
	 F           2.6246810259       -0.0286393506        2.3869330993
	            -0.0000008447       -0.0000183505        0.0000246438
	             0.0000106571        0.0001213041        0.0000272378
	            -0.0000085777       -0.0001030995       -0.0001482740
	             0.0000335025       -0.0001179141       -0.0000537434
	            -0.0000273611       -0.0001025784       -0.0000384951
	            -0.0000033685        0.0000152431       -0.0000113962
	             0.0002144123       -0.0000738355        0.0000434347
	            -0.0000253773        0.0000232284       -0.0001436886
	            -0.0000330028        0.0001555381        0.0002038908
	            -0.0002141227       -0.0000746233        0.0000363126
	             0.0000246038        0.0000265601       -0.0001444823
	             0.0000294792        0.0001485275        0.0002045600

	---Fragment 1 Intrafragment Coordinates---
	 - Coordinate -           - BOHR/RAD -       - ANG/DEG -
	 R(1,2)           =         1.796025	       0.950415
	 R(2,3)           =         2.611820	       1.382116
	 R(3,4)           =         2.881704	       1.524932
	 R(3,5)           =         2.881707	       1.524934
	 R(3,6)           =         2.040765	       1.079926
	 R(4,7)           =         2.486450	       1.315773
	 R(4,8)           =         2.487240	       1.316191
	 R(4,9)           =         2.501362	       1.323664
	 R(5,10)          =         2.486447	       1.315771
	 R(5,11)          =         2.487251	       1.316196
	 R(5,12)          =         2.501351	       1.323658
	 B(1,2,3)         =         1.926179	     110.361949
	 B(2,3,4)         =         1.917878	     109.886328
	 B(2,3,5)         =         1.917811	     109.882491
	 B(2,3,6)         =         1.881325	     107.791969
	 B(3,4,7)         =         1.913033	     109.608745
	 B(3,4,8)         =         1.959622	     112.278078
	 B(3,4,9)         =         1.934126	     110.817241
	 B(3,5,10)        =         1.913025	     109.608259
	 B(3,5,11)        =         1.959589	     112.276172
	 B(3,5,12)        =         1.934156	     110.818963
	 B(4,3,5)         =         1.988810	     113.950442
	 B(4,3,6)         =         1.877097	     107.549764
	 B(5,3,6)         =         1.877126	     107.551391
	 B(7,4,8)         =         1.885331	     108.021510
	 B(7,4,9)         =         1.880758	     107.759504
	 B(8,4,9)         =         1.888623	     108.210101
	 B(10,5,11)       =         1.885313	     108.020460
	 B(10,5,12)       =         1.880801	     107.761973
	 B(11,5,12)       =         1.888611	     108.209468
	 D(1,2,3,4)       =         1.100600	      63.059707
	 D(1,2,3,5)       =        -1.101093	     -63.087999
	 D(1,2,3,6)       =         3.141347	     179.985925
	 D(2,3,4,7)       =         1.049148	      60.111744
	 D(2,3,4,8)       =        -3.138643	    -179.831019
	 D(2,3,4,9)       =        -1.024432	     -58.695648
	 D(2,3,5,10)      =        -1.048677	     -60.084757
	 D(2,3,5,11)      =         3.139165	     179.860896
	 D(2,3,5,12)      =         1.024970	      58.726437
	 D(4,3,5,10)      =         3.073620	     176.105458
	 D(4,3,5,11)      =         0.978276	      56.051111
	 D(4,3,5,12)      =        -1.135919	     -65.083349
	 D(5,3,4,7)       =        -3.073185	    -176.080543
	 D(5,3,4,8)       =        -0.977791	     -56.023306
	 D(5,3,4,9)       =         1.136420	      65.112065
	 D(6,3,4,7)       =        -0.994243	     -56.965901
	 D(6,3,4,8)       =         1.101152	      63.091336
	 D(6,3,4,9)       =        -3.067823	    -175.773293
	 D(6,3,5,10)      =         0.994694	      56.991740
	 D(6,3,5,11)      =        -1.100650	     -63.062607
	 D(6,3,5,12)      =         3.068340	     175.802933
	 R(8,11)          =         5.011810	       2.652136
	 R(9,12)          =         5.249867	       2.778110

	Current energy   :      -786.2780903939

	Energy change for the previous step:
		Projected    :         0.0000007508
		Actual       :        -0.0000014790

	Performing BFGS update.
	Previous computed or guess Hessian on step 1.
	Steps to be used in Hessian update: 1
	Taking RFO optimization step.
	Going to follow RFO solution 1.
	Using RFO vector 1.
	Norm of target step-size    0.00311
	Projected energy change by RFO approximation:        -0.0000011088

	Back-transformation to cartesian coordinates...
	Successfully converged to displaced geometry.

	--- Internal Coordinate Step in ANG or DEG, aJ/ANG or AJ/DEG ---
	 ---------------------------------------------------------------------------
	   Coordinate                Previous        Force       Change         New 
	   ----------                --------       ------       ------       ------
	    1 R(1,2)          =      0.950415    -0.000188     0.000005     0.950420
	    2 R(2,3)          =      1.382116    -0.000930    -0.000160     1.381956
	    3 R(3,4)          =      1.524932     0.000859     0.000188     1.525120
	    4 R(3,5)          =      1.524934     0.000863     0.000188     1.525122
	    5 R(3,6)          =      1.079926    -0.000088    -0.000064     1.079862
	    6 R(4,7)          =      1.315773     0.001822     0.000109     1.315882
	    7 R(4,8)          =      1.316191    -0.000107     0.000000     1.316191
	    8 R(4,9)          =      1.323664    -0.001813    -0.000185     1.323479
	    9 R(5,10)         =      1.315771     0.001799     0.000107     1.315879
	   10 R(5,11)         =      1.316196    -0.000082     0.000003     1.316199
	   11 R(5,12)         =      1.323658    -0.001811    -0.000185     1.323472
	   12 B(1,2,3)        =    110.361949     0.000003     0.010505   110.372453
	   13 B(2,3,4)        =    109.886328    -0.000000     0.008001   109.894329
	   14 B(2,3,5)        =    109.882491     0.000001     0.011891   109.894383
	   15 B(2,3,6)        =    107.791969    -0.000000    -0.000888   107.791082
	   16 B(3,4,7)        =    109.608745     0.000011     0.025791   109.634536
	   17 B(3,4,8)        =    112.278078     0.000000    -0.003707   112.274371
	   18 B(3,4,9)        =    110.817241     0.000000     0.001226   110.818467
	   19 B(3,5,10)       =    109.608259     0.000011     0.026074   109.634333
	   20 B(3,5,11)       =    112.276172     0.000000    -0.002593   112.273579
	   21 B(3,5,12)       =    110.818963     0.000000     0.000481   110.819444
	   22 B(4,3,5)        =    113.950442     0.000000     0.011128   113.961570
	   23 B(4,3,6)        =    107.549764    -0.000000    -0.015340   107.534424
	   24 B(5,3,6)        =    107.551391    -0.000001    -0.016664   107.534727
	   25 B(7,4,8)        =    108.021510    -0.000000     0.010590   108.032100
	   26 B(7,4,9)        =    107.759504    -0.000002     0.006392   107.765896
	   27 B(8,4,9)        =    108.210101    -0.000010    -0.040285   108.169817
	   28 B(10,5,11)      =    108.020460    -0.000000     0.011251   108.031711
	   29 B(10,5,12)      =    107.761973    -0.000002     0.004288   107.766261
	   30 B(11,5,12)      =    108.209468    -0.000010    -0.039594   108.169874
	   31 D(1,2,3,4)      =     63.059707     0.000000     0.024077    63.083784
	   32 D(1,2,3,5)      =    -63.087999    -0.000000    -0.004342   -63.092340
	   33 D(1,2,3,6)      =    179.985925     0.000000     0.009601   179.995527
	   34 D(2,3,4,7)      =     60.111744    -0.000000    -0.044702    60.067042
	   35 D(2,3,4,8)      =   -179.831019     0.000001    -0.016226  -179.847245
	   36 D(2,3,4,9)      =    -58.695648    -0.000002    -0.069600   -58.765249
	   37 D(2,3,5,10)     =    -60.084757     0.000000     0.030019   -60.054737
	   38 D(2,3,5,11)     =    179.860896    -0.000001    -0.000204   179.860692
	   39 D(2,3,5,12)     =     58.726437     0.000001     0.052041    58.778478
	   40 D(4,3,5,10)     =    176.105458     0.000000     0.002079   176.107537
	   41 D(4,3,5,11)     =     56.051111    -0.000002    -0.028144    56.022967
	   42 D(4,3,5,12)     =    -65.083349     0.000001     0.024101   -65.059247
	   43 D(5,3,4,7)      =   -176.080543     0.000000    -0.014661  -176.095204
	   44 D(5,3,4,8)      =    -56.023306     0.000002     0.013815   -56.009491
	   45 D(5,3,4,9)      =     65.112065    -0.000001    -0.039559    65.072505
	   46 D(6,3,4,7)      =    -56.965901    -0.000000    -0.039252   -57.005153
	   47 D(6,3,4,8)      =     63.091336     0.000001    -0.010776    63.080560
	   48 D(6,3,4,9)      =   -175.773293    -0.000001    -0.064150  -175.837443
	   49 D(6,3,5,10)     =     56.991740     0.000000     0.025918    57.017658
	   50 D(6,3,5,11)     =    -63.062607    -0.000001    -0.004305   -63.066913
	   51 D(6,3,5,12)     =    175.802933     0.000001     0.047940   175.850873
	   52 R(8,11)         =      2.652136     0.000128     0.000108     2.652244
	   53 R(9,12)         =      2.778110     0.000194    -0.000065     2.778045
	 ---------------------------------------------------------------------------

  ==> Convergence Check <==

  Measures of convergence in internal coordinates in au.
  Criteria marked as inactive (o), active & met (*), and active & unmet ( ).
  ---------------------------------------------------------------------------------------------
   Step     Total Energy     Delta E     MAX Force     RMS Force      MAX Disp      RMS Disp   
  ---------------------------------------------------------------------------------------------
    Convergence Criteria    1.00e-06 *    3.00e-04 *             o    1.20e-03 *             o
  ---------------------------------------------------------------------------------------------
      2    -786.27809039   -1.48e-06      2.21e-04 *    8.55e-05 o    1.21e-03      4.27e-04 o  ~
  ---------------------------------------------------------------------------------------------

	Writing optimization data to binary file.
	Structure for next step:
	Cartesian Geometry (in Angstrom)
	    H    -0.0001640902   1.9704247126   0.7568835642
	    O    -0.0000807878   1.8801326508  -0.1892381946
	    C    -0.0000211377   0.5447735376  -0.5450740452
	    C    -1.2787951016  -0.1238934937  -0.0515038515
	    C     1.2787958229  -0.1237910743  -0.0514681879
	    H    -0.0000075210   0.4907034001  -1.6235815679
	    F    -2.3233491881   0.4662118383  -0.5920852232
	    F    -1.3260089295  -1.4017215776  -0.3634094224
	    F    -1.3891057588  -0.0155576085   1.2629131576
	    F     2.3233210190   0.4665705068  -0.5918168586
	    F     1.3262351891  -1.4015566667  -0.3636296215
	    F     1.3889394610  -0.0157048582   1.2629766008
			--------------------------
			 OPTKING Finished Execution 
			--------------------------

    Structure for next step:
    Molecular point group: c1
    Full point group: C1

    Geometry (in Angstrom), charge = 0, multiplicity = 1:

    H           -0.000157506118     1.970498114606     0.756846837776
    O           -0.000074203665     1.880206059694    -0.189274848767
    C           -0.000014553667     0.544847048457    -0.545110672143
    C           -1.278788419819    -0.123819931703    -0.051540516171
    C            1.278802309284    -0.123717512394    -0.051504852561
    H           -0.000000936960     0.490776915136    -1.623618112549
    F           -2.323342426565     0.466285355196    -0.592121846589
    F           -1.326002244150    -1.401647918014    -0.363446063228
    F           -1.389099068618    -0.015484054853     1.262876392548
    F            2.323327425691     0.466644023717    -0.591853482046
    F            1.326241671918    -1.401483007148    -0.363666262383
    F            1.388945939010    -0.015631304546     1.262939835792

gradient() will perform analytic gradient computation.

*** tstart() called on cx1-3-4-4.cx1.hpc.ic.ac.uk
*** at Tue Jul  5 16:42:09 2016


         ---------------------------------------------------------
                                   SCF
            by Justin Turney, Rob Parrish, and Andy Simmonett
                              RHF Reference
                        1 Threads,   2000 MiB Core
         ---------------------------------------------------------

  ==> Geometry <==

    Molecular point group: c1
    Full point group: C1

    Geometry (in Angstrom), charge = 0, multiplicity = 1:

       Center              X                  Y                   Z               Mass       
    ------------   -----------------  -----------------  -----------------  -----------------
           H         -0.000157506118     1.970498114606     0.756846837776     1.007825032070
           O         -0.000074203665     1.880206059694    -0.189274848767    15.994914619560
           C         -0.000014553667     0.544847048457    -0.545110672143    12.000000000000
           C         -1.278788419819    -0.123819931703    -0.051540516171    12.000000000000
           C          1.278802309284    -0.123717512394    -0.051504852561    12.000000000000
           H         -0.000000936960     0.490776915136    -1.623618112549     1.007825032070
           F         -2.323342426565     0.466285355196    -0.592121846589    18.998403224000
           F         -1.326002244150    -1.401647918014    -0.363446063228    18.998403224000
           F         -1.389099068618    -0.015484054853     1.262876392548    18.998403224000
           F          2.323327425691     0.466644023717    -0.591853482046    18.998403224000
           F          1.326241671918    -1.401483007148    -0.363666262383    18.998403224000
           F          1.388945939010    -0.015631304546     1.262939835792    18.998403224000

  Running in c1 symmetry.

  Rotational constants: A =      0.07206  B =      0.03580  C =      0.03169 [cm^-1]
  Rotational constants: A =   2160.42990  B =   1073.31632  C =    949.90531 [MHz]
  Nuclear repulsion =  670.515132576709789

  Charge       = 0
  Multiplicity = 1
  Electrons    = 82
  Nalpha       = 41
  Nbeta        = 41

  ==> Algorithm <==

  SCF Algorithm Type is DF.
  DIIS enabled.
  MOM disabled.
  Fractional occupation disabled.
  Guess Type is READ.
  Energy threshold   = 1.00e-08
  Density threshold  = 1.00e-08
  Integral threshold = 0.00e+00

  ==> Primary Basis <==

  Basis Set: 6-31G*
    Number of shells: 64
    Number of basis function: 154
    Number of Cartesian functions: 154
    Spherical Harmonics?: false
    Max angular momentum: 2

  ==> Pre-Iterations <==

   -------------------------------------------------------
    Irrep   Nso     Nmo     Nalpha   Nbeta   Ndocc  Nsocc
   -------------------------------------------------------
     A        154     154       0       0       0       0
   -------------------------------------------------------
    Total     154     154      41      41      41       0
   -------------------------------------------------------

 OEINTS: Overlap, kinetic, potential, dipole, and quadrupole integrals
         stored in file 35.

  ==> Integral Setup <==

  ==> DFJK: Density-Fitted J/K Matrices <==

    J tasked:                  Yes
    K tasked:                  Yes
    wK tasked:                  No
    OpenMP threads:              1
    Integrals threads:           1
    Memory (MB):              1430
    Algorithm:                Core
    Integral Cache:           NONE
    Schwarz Cutoff:          1E-12
    Fitting Condition:       1E-12

   => Auxiliary Basis Set <=

  Basis Set: 
    Number of shells: 258
    Number of basis function: 860
    Number of Cartesian functions: 860
    Spherical Harmonics?: false
    Max angular momentum: 3

  Minimum eigenvalue in the overlap matrix is 1.6841634011E-03.
  Using Symmetric Orthogonalization.
  SCF Guess: Reading in previously saved MOs, projecting if necessary.

  Using orbitals from previous SCF, no projection.
  Recomputing DOCC and SOCC from number of alpha and beta electrons from previous calculation.
              A 
    DOCC [    41 ]

  ==> Iterations <==

                           Total Energy        Delta E     RMS |[F,P]|

   @DF-RHF iter   0:  -786.27808788410891   -7.86278e+02   1.43726e-05 
   @DF-RHF iter   1:  -786.27809089555251   -3.01144e-06   1.99277e-06 
   @DF-RHF iter   2:  -786.27809096969543   -7.41429e-08   8.35608e-07 DIIS
   @DF-RHF iter   3:  -786.27809098146088   -1.17655e-08   4.10409e-07 DIIS
   @DF-RHF iter   4:  -786.27809098409818   -2.63731e-09   6.90666e-08 DIIS
   @DF-RHF iter   5:  -786.27809098420482   -1.06638e-10   2.17748e-08 DIIS
   @DF-RHF iter   6:  -786.27809098421392   -9.09495e-12   5.64287e-09 DIIS

  ==> Post-Iterations <==

    Orbital Energies (a.u.)
    -----------------------

    Doubly Occupied:                                                      

       1A    -26.362838     2A    -26.362835     3A    -26.361818  
       4A    -26.361811     5A    -26.358161     6A    -26.358159  
       7A    -20.617156     8A    -11.525867     9A    -11.525851  
      10A    -11.349341    11A     -1.764730    12A     -1.758796  
      13A     -1.662115    14A     -1.657850    15A     -1.656907  
      16A     -1.655325    17A     -1.435526    18A     -1.101870  
      19A     -0.996955    20A     -0.938522    21A     -0.863707  
      22A     -0.862862    23A     -0.852092    24A     -0.844417  
      25A     -0.831904    26A     -0.816127    27A     -0.743714  
      28A     -0.726920    29A     -0.724367    30A     -0.717565  
      31A     -0.689163    32A     -0.686255    33A     -0.683321  
      34A     -0.674508    35A     -0.670025    36A     -0.663076  
      37A     -0.656558    38A     -0.653405    39A     -0.620463  
      40A     -0.551561    41A     -0.506046  

    Virtual:                                                              

      42A      0.217308    43A      0.242721    44A      0.295827  
      45A      0.343540    46A      0.358333    47A      0.401568  
      48A      0.452212    49A      0.461591    50A      0.462876  
      51A      0.530839    52A      0.538467    53A      0.663364  
      54A      0.672924    55A      0.717145    56A      0.731667  
      57A      0.743941    58A      0.791217    59A      0.793003  
      60A      0.838987    61A      0.908598    62A      0.949194  
      63A      1.057748    64A      1.111648    65A      1.126353  
      66A      1.163289    67A      1.243022    68A      1.247107  
      69A      1.277926    70A      1.327296    71A      1.346959  
      72A      1.363833    73A      1.365849    74A      1.382778  
      75A      1.454946    76A      1.455772    77A      1.512829  
      78A      1.579218    79A      1.584286    80A      1.589719  
      81A      1.609732    82A      1.613002    83A      1.624027  
      84A      1.641772    85A      1.657216    86A      1.659563  
      87A      1.660964    88A      1.670162    89A      1.700603  
      90A      1.732306    91A      1.738631    92A      1.778776  
      93A      1.864435    94A      1.886052    95A      1.896819  
      96A      1.939364    97A      1.970201    98A      1.977344  
      99A      1.978120   100A      2.098027   101A      2.106741  
     102A      2.114599   103A      2.122112   104A      2.137542  
     105A      2.139707   106A      2.147826   107A      2.170273  
     108A      2.192419   109A      2.288484   110A      2.296842  
     111A      2.317424   112A      2.330783   113A      2.340997  
     114A      2.351901   115A      2.392154   116A      2.400415  
     117A      2.400697   118A      2.423443   119A      2.449425  
     120A      2.474603   121A      2.534863   122A      2.552731  
     123A      2.591475   124A      2.608633   125A      2.670609  
     126A      2.690919   127A      2.710718   128A      2.788195  
     129A      2.878570   130A      2.908481   131A      2.959881  
     132A      3.056307   133A      3.140460   134A      3.177202  
     135A      3.195273   136A      3.236324   137A      3.267224  
     138A      3.339766   139A      3.402424   140A      3.415545  
     141A      3.444529   142A      3.450382   143A      3.452881  
     144A      3.477540   145A      4.184599   146A      4.625354  
     147A      4.752823   148A      4.812074   149A      5.043578  
     150A      5.088446   151A      5.315402   152A      5.641935  
     153A      5.831948   154A      6.346654  

    Final Occupation by Irrep:
              A 
    DOCC [    41 ]

  Energy converged.

  @DF-RHF Final Energy:  -786.27809098421392

   => Energetics <=

    Nuclear Repulsion Energy =            670.5151325767097887
    One-Electron Energy =               -2427.8854691273081698
    Two-Electron Energy =                 971.0922455663828714
    DFT Exchange-Correlation Energy =       0.0000000000000000
    Empirical Dispersion Energy =           0.0000000000000000
    PCM Polarization Energy =               0.0000000000000000
    EFP Energy =                            0.0000000000000000
    Total Energy =                       -786.2780909842156234

    Alert: EFP and PCM quantities not currently incorporated into SCF psivars.

Properties will be evaluated at   0.000000,   0.000000,   0.000000 Bohr
  ==> Properties <==


Properties computed using the SCF density matrix

  Nuclear Dipole Moment: (a.u.)
     X:    -0.0002      Y:     4.1100      Z:    -1.3934

  Electronic Dipole Moment: (a.u.)
     X:     0.0002      Y:    -3.9458      Z:     1.3786

  Dipole Moment: (a.u.)
     X:    -0.0001      Y:     0.1642      Z:    -0.0147     Total:     0.1649

  Dipole Moment: (Debye)
     X:    -0.0001      Y:     0.4175      Z:    -0.0375     Total:     0.4191


  Saving occupied orbitals to File 180.

*** tstop() called on cx1-3-4-4.cx1.hpc.ic.ac.uk at Tue Jul  5 16:42:21 2016
Module time:
	user time   =      11.33 seconds =       0.19 minutes
	system time =       0.09 seconds =       0.00 minutes
	total time  =         12 seconds =       0.20 minutes
Total time:
	user time   =      80.98 seconds =       1.35 minutes
	system time =       0.81 seconds =       0.01 minutes
	total time  =         84 seconds =       1.40 minutes

*** tstart() called on cx1-3-4-4.cx1.hpc.ic.ac.uk
*** at Tue Jul  5 16:42:21 2016


         ------------------------------------------------------------
                                   SCF GRAD                          
                          Rob Parrish, Justin Turney,                
                       Andy Simmonett, and Alex Sokolov              
         ------------------------------------------------------------

  ==> Geometry <==

    Molecular point group: c1
    Full point group: C1

    Geometry (in Angstrom), charge = 0, multiplicity = 1:

       Center              X                  Y                   Z               Mass       
    ------------   -----------------  -----------------  -----------------  -----------------
           H         -0.000157506118     1.970498114606     0.756846837776     1.007825032070
           O         -0.000074203665     1.880206059694    -0.189274848767    15.994914619560
           C         -0.000014553667     0.544847048457    -0.545110672143    12.000000000000
           C         -1.278788419819    -0.123819931703    -0.051540516171    12.000000000000
           C          1.278802309284    -0.123717512394    -0.051504852561    12.000000000000
           H         -0.000000936960     0.490776915136    -1.623618112549     1.007825032070
           F         -2.323342426565     0.466285355196    -0.592121846589    18.998403224000
           F         -1.326002244150    -1.401647918014    -0.363446063228    18.998403224000
           F         -1.389099068618    -0.015484054853     1.262876392548    18.998403224000
           F          2.323327425691     0.466644023717    -0.591853482046    18.998403224000
           F          1.326241671918    -1.401483007148    -0.363666262383    18.998403224000
           F          1.388945939010    -0.015631304546     1.262939835792    18.998403224000

  Nuclear repulsion =  670.515132576709789

  ==> Basis Set <==

  Basis Set: 6-31G*
    Number of shells: 64
    Number of basis function: 154
    Number of Cartesian functions: 154
    Spherical Harmonics?: false
    Max angular momentum: 2

  ==> DFJKGrad: Density-Fitted SCF Gradients <==

    Gradient:                    1
    J tasked:                  Yes
    K tasked:                  Yes
    wK tasked:                  No
    OpenMP threads:              1
    Integrals threads:           1
    Memory (MB):              1430
    Schwarz Cutoff:          0E+00
    Fitting Condition:       1E-12

   => Auxiliary Basis Set <=

  Basis Set: 
    Number of shells: 258
    Number of basis function: 860
    Number of Cartesian functions: 860
    Spherical Harmonics?: false
    Max angular momentum: 3


  -Total Gradient:
     Atom            X                  Y                   Z
    ------   -----------------  -----------------  -----------------
       1       -0.000000165529    -0.000006677745     0.000026934819
       2        0.000001324065     0.000011494894    -0.000032364162
       3       -0.000001430910     0.000015185703    -0.000032852943
       4       -0.000038331529    -0.000007135616    -0.000060096770
       5        0.000040963241     0.000000076911    -0.000052518563
       6       -0.000001129650    -0.000003542435     0.000053563559
       7        0.000040766081    -0.000028198401     0.000024760557
       8       -0.000006994845     0.000030003498     0.000015916908
       9        0.000000072165    -0.000002882716     0.000010600752
      10       -0.000042946903    -0.000029407228     0.000025505360
      11        0.000007802451     0.000025227786     0.000013993733
      12        0.000000071356    -0.000004144647     0.000006556746


*** tstop() called on cx1-3-4-4.cx1.hpc.ic.ac.uk at Tue Jul  5 16:42:39 2016
Module time:
	user time   =      17.90 seconds =       0.30 minutes
	system time =       0.14 seconds =       0.00 minutes
	total time  =         18 seconds =       0.30 minutes
Total time:
	user time   =      98.89 seconds =       1.65 minutes
	system time =       0.95 seconds =       0.02 minutes
	total time  =        102 seconds =       1.70 minutes
CURRENT ENERGY: -786.2780909842

			-----------------------------------------
			 OPTKING 2.0: for geometry optimizations 
			  - R.A. King,  Bethel University        
			-----------------------------------------

	Previous internal coordinate definitions found.
	---Fragment 1 Geometry and Gradient---
	 H          -0.0002976434        3.7237017820        1.4302332479
	 O          -0.0001402246        3.5530745262       -0.3576776280
	 C          -0.0000275024        1.0296117059       -1.0301098825
	 C          -2.4165598954       -0.2339857607       -0.0973974603
	 C           2.4165861426       -0.2337922163       -0.0973300659
	 H          -0.0000017706        0.9274339619       -3.0681935771
	 F          -4.3904808991        0.8811516211       -1.1189481274
	 F          -2.5057810930       -2.6487306998       -0.6868135236
	 F          -2.6250168111       -0.0292606231        2.3864905216
	 F           4.3904525516        0.8818294064       -1.1184409919
	 F           2.5062335459       -2.6484190634       -0.6872296397
	 F           2.6247274381       -0.0295388847        2.3866104120
	            -0.0000001655       -0.0000066777        0.0000269348
	             0.0000013241        0.0000114949       -0.0000323642
	            -0.0000014309        0.0000151857       -0.0000328529
	            -0.0000383315       -0.0000071356       -0.0000600968
	             0.0000409632        0.0000000769       -0.0000525186
	            -0.0000011296       -0.0000035424        0.0000535636
	             0.0000407661       -0.0000281984        0.0000247606
	            -0.0000069948        0.0000300035        0.0000159169
	             0.0000000722       -0.0000028827        0.0000106008
	            -0.0000429469       -0.0000294072        0.0000255054
	             0.0000078025        0.0000252278        0.0000139937
	             0.0000000714       -0.0000041446        0.0000065567

	---Fragment 1 Intrafragment Coordinates---
	 - Coordinate -           - BOHR/RAD -       - ANG/DEG -
	 R(1,2)           =         1.796034	       0.950420
	 R(2,3)           =         2.611519	       1.381956
	 R(3,4)           =         2.882058	       1.525120
	 R(3,5)           =         2.882063	       1.525122
	 R(3,6)           =         2.040643	       1.079862
	 R(4,7)           =         2.486657	       1.315882
	 R(4,8)           =         2.487240	       1.316191
	 R(4,9)           =         2.501013	       1.323479
	 R(5,10)          =         2.486650	       1.315879
	 R(5,11)          =         2.487256	       1.316199
	 R(5,12)          =         2.501000	       1.323472
	 B(1,2,3)         =         1.926363	     110.372453
	 B(2,3,4)         =         1.918018	     109.894329
	 B(2,3,5)         =         1.918019	     109.894383
	 B(2,3,6)         =         1.881309	     107.791082
	 B(3,4,7)         =         1.913484	     109.634536
	 B(3,4,8)         =         1.959557	     112.274371
	 B(3,4,9)         =         1.934147	     110.818467
	 B(3,5,10)        =         1.913480	     109.634333
	 B(3,5,11)        =         1.959544	     112.273579
	 B(3,5,12)        =         1.934164	     110.819444
	 B(4,3,5)         =         1.989005	     113.961570
	 B(4,3,6)         =         1.876830	     107.534424
	 B(5,3,6)         =         1.876835	     107.534727
	 B(7,4,8)         =         1.885516	     108.032100
	 B(7,4,9)         =         1.880870	     107.765896
	 B(8,4,9)         =         1.887919	     108.169817
	 B(10,5,11)       =         1.885509	     108.031711
	 B(10,5,12)       =         1.880876	     107.766261
	 B(11,5,12)       =         1.887920	     108.169874
	 D(1,2,3,4)       =         1.101020	      63.083784
	 D(1,2,3,5)       =        -1.101169	     -63.092340
	 D(1,2,3,6)       =         3.141515	     179.995527
	 D(2,3,4,7)       =         1.048368	      60.067042
	 D(2,3,4,8)       =        -3.138927	    -179.847245
	 D(2,3,4,9)       =        -1.025647	     -58.765249
	 D(2,3,5,10)      =        -1.048153	     -60.054737
	 D(2,3,5,11)      =         3.139161	     179.860692
	 D(2,3,5,12)      =         1.025878	      58.778478
	 D(4,3,5,10)      =         3.073656	     176.107537
	 D(4,3,5,11)      =         0.977785	      56.022967
	 D(4,3,5,12)      =        -1.135498	     -65.059247
	 D(5,3,4,7)       =        -3.073441	    -176.095204
	 D(5,3,4,8)       =        -0.977550	     -56.009491
	 D(5,3,4,9)       =         1.135729	      65.072505
	 D(6,3,4,7)       =        -0.994928	     -57.005153
	 D(6,3,4,8)       =         1.100963	      63.080560
	 D(6,3,4,9)       =        -3.068942	    -175.837443
	 D(6,3,5,10)      =         0.995146	      57.017658
	 D(6,3,5,11)      =        -1.100725	     -63.066913
	 D(6,3,5,12)      =         3.069177	     175.850873
	 R(8,11)          =         5.012015	       2.652244
	 R(9,12)          =         5.249744	       2.778045

	Current energy   :      -786.2780909842

	Energy change for the previous step:
		Projected    :        -0.0000011088
		Actual       :        -0.0000005903

	Performing BFGS update.
	Previous computed or guess Hessian on step 1.
	Steps to be used in Hessian update: 2 1
	Taking RFO optimization step.
	Going to follow RFO solution 1.
	Using RFO vector 1.
	Norm of target step-size    0.00055
	Projected energy change by RFO approximation:        -0.0000000066

	Back-transformation to cartesian coordinates...
	Successfully converged to displaced geometry.

	--- Internal Coordinate Step in ANG or DEG, aJ/ANG or AJ/DEG ---
	 ---------------------------------------------------------------------------
	   Coordinate                Previous        Force       Change         New 
	   ----------                --------       ------       ------       ------
	    1 R(1,2)          =      0.950420    -0.000216    -0.000022     0.950398
	    2 R(2,3)          =      1.381956    -0.000027    -0.000014     1.381942
	    3 R(3,4)          =      1.525120    -0.000012     0.000002     1.525122
	    4 R(3,5)          =      1.525122    -0.000028    -0.000001     1.525121
	    5 R(3,6)          =      1.079862     0.000439     0.000072     1.079934
	    6 R(4,7)          =      1.315882     0.000455     0.000048     1.315930
	    7 R(4,8)          =      1.316191     0.000271     0.000028     1.316219
	    8 R(4,9)          =      1.323479    -0.000086    -0.000019     1.323460
	    9 R(5,10)         =      1.315879     0.000476     0.000050     1.315929
	   10 R(5,11)         =      1.316199     0.000228     0.000024     1.316223
	   11 R(5,12)         =      1.323472    -0.000052    -0.000015     1.323457
	   12 B(1,2,3)        =    110.372453     0.000001     0.006314   110.378767
	   13 B(2,3,4)        =    109.894329    -0.000000    -0.001614   109.892716
	   14 B(2,3,5)        =    109.894383    -0.000000    -0.000882   109.893501
	   15 B(2,3,6)        =    107.791082    -0.000000    -0.001590   107.789492
	   16 B(3,4,7)        =    109.634536    -0.000001    -0.002172   109.632364
	   17 B(3,4,8)        =    112.274371    -0.000001    -0.003588   112.270782
	   18 B(3,4,9)        =    110.818467    -0.000000     0.001916   110.820384
	   19 B(3,5,10)       =    109.634333    -0.000001    -0.001914   109.632419
	   20 B(3,5,11)       =    112.273579    -0.000001    -0.003514   112.270065
	   21 B(3,5,12)       =    110.819444    -0.000000     0.001360   110.820804
	   22 B(4,3,5)        =    113.961570     0.000000     0.000262   113.961832
	   23 B(4,3,6)        =    107.534424     0.000000     0.002289   107.536713
	   24 B(5,3,6)        =    107.534727     0.000000     0.001570   107.536297
	   25 B(7,4,8)        =    108.032100     0.000000     0.000618   108.032717
	   26 B(7,4,9)        =    107.765896     0.000000     0.000671   107.766567
	   27 B(8,4,9)        =    108.169817     0.000001     0.002738   108.172555
	   28 B(10,5,11)      =    108.031711     0.000000     0.000976   108.032687
	   29 B(10,5,12)      =    107.766261     0.000000     0.000521   107.766783
	   30 B(11,5,12)      =    108.169874     0.000001     0.002762   108.172636
	   31 D(1,2,3,4)      =     63.083784     0.000000     0.000768    63.084552
	   32 D(1,2,3,5)      =    -63.092340    -0.000000     0.002212   -63.090128
	   33 D(1,2,3,6)      =    179.995527     0.000000     0.001720   179.997247
	   34 D(2,3,4,7)      =     60.067042     0.000000    -0.006491    60.060551
	   35 D(2,3,4,8)      =   -179.847245    -0.000000    -0.009519  -179.856765
	   36 D(2,3,4,9)      =    -58.765249     0.000000    -0.007131   -58.772380
	   37 D(2,3,5,10)     =    -60.054737    -0.000000    -0.004476   -60.059214
	   38 D(2,3,5,11)     =    179.860692     0.000000    -0.002123   179.858569
	   39 D(2,3,5,12)     =     58.778478    -0.000000    -0.004200    58.774278
	   40 D(4,3,5,10)     =    176.107537     0.000000    -0.001856   176.105681
	   41 D(4,3,5,11)     =     56.022967     0.000000     0.000496    56.023463
	   42 D(4,3,5,12)     =    -65.059247     0.000000    -0.001580   -65.060828
	   43 D(5,3,4,7)      =   -176.095204    -0.000000    -0.008715  -176.103919
	   44 D(5,3,4,8)      =    -56.009491    -0.000000    -0.011744   -56.021235
	   45 D(5,3,4,9)      =     65.072505    -0.000000    -0.009356    65.063150
	   46 D(6,3,4,7)      =    -57.005153     0.000000    -0.005023   -57.010175
	   47 D(6,3,4,8)      =     63.080560    -0.000000    -0.008052    63.072508
	   48 D(6,3,4,9)      =   -175.837443     0.000000    -0.005663  -175.843107
	   49 D(6,3,5,10)     =     57.017658    -0.000000    -0.005956    57.011701
	   50 D(6,3,5,11)     =    -63.066913     0.000000    -0.003604   -63.070516
	   51 D(6,3,5,12)     =    175.850873    -0.000000    -0.005680   175.845193
	   52 R(8,11)         =      2.652244    -0.000045    -0.000017     2.652227
	   53 R(9,12)         =      2.778045     0.000015    -0.000012     2.778033
	 ---------------------------------------------------------------------------

  ==> Convergence Check <==

  Measures of convergence in internal coordinates in au.
  Criteria marked as inactive (o), active & met (*), and active & unmet ( ).
  ---------------------------------------------------------------------------------------------
   Step     Total Energy     Delta E     MAX Force     RMS Force      MAX Disp      RMS Disp   
  ---------------------------------------------------------------------------------------------
    Convergence Criteria    1.00e-06 *    3.00e-04 *             o    1.20e-03 *             o
  ---------------------------------------------------------------------------------------------
      3    -786.27809098   -5.90e-07 *    5.78e-05 *    1.57e-05 o    2.05e-04 *    7.61e-05 o  ~
  ---------------------------------------------------------------------------------------------


  **** Optimization is complete! (in 3 steps) ****

  ==> Optimization Summary <==

  Measures of convergence in internal coordinates in au.
  --------------------------------------------------------------------------------------------------------------- ~
   Step         Total Energy             Delta E       MAX Force       RMS Force        MAX Disp        RMS Disp  ~
  --------------------------------------------------------------------------------------------------------------- ~
      1    -786.278088914906   -786.278088914906      0.00046137      0.00014309      0.00235523      0.00093469  ~
      2    -786.278090393892     -0.000001478987      0.00022113      0.00008551      0.00121476      0.00042727  ~
      3    -786.278090984214     -0.000000590322      0.00005776      0.00001566      0.00020497      0.00007611  ~
  --------------------------------------------------------------------------------------------------------------- ~

	Writing optimization data to binary file.
	Final energy is   -786.2780909842139
	Final (previous) structure:
	Cartesian Geometry (in Angstrom)
	    H    -0.0001575061   1.9704982651   0.7568468956
	    O    -0.0000742037   1.8802062033  -0.1892748632
	    C    -0.0000145537   0.5448470901  -0.5451107138
	    C    -1.2787885175  -0.1238199412  -0.0515405201
	    C     1.2788024069  -0.1237175218  -0.0515048565
	    H    -0.0000009370   0.4907769526  -1.6236182365
	    F    -2.3233426040   0.4662853908  -0.5921218918
	    F    -1.3260023454  -1.4016480250  -0.3634460910
	    F    -1.3890991747  -0.0154840560   1.2628764890
	    F     2.3233276031   0.4666440594  -0.5918535272
	    F     1.3262417732  -1.4014831142  -0.3636662902
	    F     1.3889460451  -0.0156313057   1.2629399322
	Saving final (previous) structure.
			--------------------------
			 OPTKING Finished Execution 
			--------------------------

    Final optimized geometry and variables:
    Molecular point group: c1
    Full point group: C1

    Geometry (in Angstrom), charge = 0, multiplicity = 1:

    H           -0.000157506118     1.970498114606     0.756846837776
    O           -0.000074203665     1.880206059694    -0.189274848767
    C           -0.000014553667     0.544847048457    -0.545110672143
    C           -1.278788419819    -0.123819931703    -0.051540516171
    C            1.278802309284    -0.123717512394    -0.051504852561
    H           -0.000000936960     0.490776915136    -1.623618112549
    F           -2.323342426565     0.466285355196    -0.592121846589
    F           -1.326002244150    -1.401647918014    -0.363446063228
    F           -1.389099068618    -0.015484054853     1.262876392548
    F            2.323327425691     0.466644023717    -0.591853482046
    F            1.326241671918    -1.401483007148    -0.363666262383
    F            1.388945939010    -0.015631304546     1.262939835792

	Cleaning optimization helper files.


Properties will be evaluated at   0.000000,   0.000000,   0.000000 Bohr

Properties computed using the  density matrix

  Nuclear Dipole Moment: (a.u.)
     X:    -0.0002      Y:     4.1100      Z:    -1.3934

  Electronic Dipole Moment: (a.u.)
     X:     0.0002      Y:    -3.9458      Z:     1.3786

  Dipole Moment: (a.u.)
     X:    -0.0001      Y:     0.1642      Z:    -0.0147     Total:     0.1649

  Dipole Moment: (Debye)
     X:    -0.0001      Y:     0.4175      Z:    -0.0375     Total:     0.4191

  Quadrupole Moment: (Debye Ang)
    XX:   -56.6935     YY:   -55.0714     ZZ:   -49.9668
    XY:    -0.0002     XZ:    -0.0002     YZ:     2.9230

  Traceless Quadrupole Moment: (Debye Ang)
    XX:    -2.7829     YY:    -1.1608     ZZ:     3.9438
    XY:    -0.0002     XZ:    -0.0002     YZ:     2.9230

  Mulliken Charges: (a.u.)
   Center  Symbol    Alpha    Beta     Spin     Total
       1     H     0.26565  0.26565  0.00000  0.46869
       2     O     4.36280  4.36280  0.00000 -0.72560
       3     C     3.04502  3.04502  0.00000 -0.09005
       4     C     2.44604  2.44604  0.00000  1.10792
       5     C     2.44604  2.44604  0.00000  1.10792
       6     H     0.37527  0.37527  0.00000  0.24947
       7     F     4.67485  4.67485  0.00000 -0.34970
       8     F     4.67388  4.67388  0.00000 -0.34775
       9     F     4.68086  4.68086  0.00000 -0.36173
      10     F     4.67485  4.67485  0.00000 -0.34969
      11     F     4.67388  4.67388  0.00000 -0.34776
      12     F     4.68086  4.68086  0.00000 -0.36172

   Total alpha = 41.00000, Total beta = 41.00000, Total charge =  0.00000


*** PSI4 exiting successfully. Buy a developer a beer!
