
    -----------------------------------------------------------------------
          Psi4: An Open-Source Ab Initio Electronic Structure Package
                               Psi4 1.1 release

                         Git: Rev {HEAD} add49b9 


    R. M. Parrish, L. A. Burns, D. G. A. Smith, A. C. Simmonett,
    A. E. DePrince III, E. G. Hohenstein, U. Bozkaya, A. Yu. Sokolov,
    R. Di Remigio, R. M. Richard, J. F. Gonthier, A. M. James,
    H. R. McAlexander, A. Kumar, M. Saitow, X. Wang, B. P. Pritchard,
    P. Verma, H. F. Schaefer III, K. Patkowski, R. A. King, E. F. Valeev,
    F. A. Evangelista, J. M. Turney, T. D. Crawford, and C. D. Sherrill,
    J. Chem. Theory Comput. in press (2017).
    (doi: 10.1021/acs.jctc.7b00174)

    -----------------------------------------------------------------------


    Psi4 started on: Friday, 11 August 2017 08:18PM

    Process ID:  32402
    PSIDATADIR: /home/raimis/opt/miniconda3/envs/htmd/share/psi4
    Memory:     500.0 MiB
    Threads:    1
    
  ==> Input File <==

--------------------------------------------------------------------------
set {
	reference rks
	basis 6-31G*
}


set_num_threads( 8 )
memory 2 gb

molecule MOL {
1 1

C	 -0.000000	 -0.000000	 -0.191639
C	 0.958853	 -0.754201	 0.510391
C	 0.956743	 -0.746533	 1.901670
C	 -0.000000	 0.000000	 2.596333
C	 -0.956743	 0.746533	 1.901670
C	 -0.958853	 0.754202	 0.510391
C	 -0.000000	 -0.000000	 -1.658508
H	 1.730111	 -1.301151	 -0.024627
H	 1.706212	 -1.313620	 2.444112
H	 -0.000000	 0.000000	 3.681982
H	 -1.706212	 1.313619	 2.444112
H	 -1.730111	 1.301151	 -0.024627
N	 -0.712589	 -0.905950	 -2.322235
N	 0.712590	 0.905950	 -2.322235
H	 0.673432	 1.006470	 -3.329771
H	 1.377190	 1.485970	 -1.827091
H	 -1.377189	 -1.485970	 -1.827091
H	 -0.673431	 -1.006470	 -3.329771

	symmetry c1
}
set optking { dynamic_level = 1 }
set optking {
	frozen_dihedral = ("
		2 1 7 13
	")
}

ee,wfn = optimize('b3lyp-d3', return_wfn=True)
oeprop( wfn, 'DIPOLE', 'QUADRUPOLE', 'MULLIKEN_CHARGES')
f=open( 'psi4out.xyz', 'w' )
f.write( "18  " )
f.write( str(ee) + "\n" )
f.write( MOL.save_string_xyz() )
f.close()
--------------------------------------------------------------------------
  Threads set to 8 by Python driver.

  Memory set to   1.863 GiB by Python driver.
gradient() will perform analytic gradient computation.

*** tstart() called on computer03
*** at Fri Aug 11 20:18:07 2017

   => Loading Basis Set <=

    Name: 6-31G*
    Role: ORBITAL
    Keyword: BASIS
    atoms 1-7         entry C          line   102 file /home/raimis/opt/miniconda3/envs/htmd/share/psi4/basis/6-31gs.gbs 
    atoms 8-12, 15-18 entry H          line    35 file /home/raimis/opt/miniconda3/envs/htmd/share/psi4/basis/6-31gs.gbs 
    atoms 13-14       entry N          line   119 file /home/raimis/opt/miniconda3/envs/htmd/share/psi4/basis/6-31gs.gbs 


         ---------------------------------------------------------
                                   SCF
            by Justin Turney, Rob Parrish, and Andy Simmonett
                              RKS Reference
                        8 Threads,   1907 MiB Core
         ---------------------------------------------------------

  ==> Geometry <==

    Molecular point group: c1
    Full point group: C1

    Geometry (in Angstrom), charge = 1, multiplicity = 1:

       Center              X                  Y                   Z               Mass       
    ------------   -----------------  -----------------  -----------------  -----------------
           C         -0.000000132302    -0.000000090787    -0.191639316978    12.000000000000
           C          0.958852867698    -0.754201090787     0.510390683022    12.000000000000
           C          0.956742867698    -0.746533090787     1.901669683022    12.000000000000
           C         -0.000000132302    -0.000000090787     2.596332683022    12.000000000000
           C         -0.956743132302     0.746532909213     1.901669683022    12.000000000000
           C         -0.958853132302     0.754201909213     0.510390683022    12.000000000000
           C         -0.000000132302    -0.000000090787    -1.658508316978    12.000000000000
           H          1.730110867698    -1.301151090787    -0.024627316978     1.007825032070
           H          1.706211867698    -1.313620090787     2.444111683022     1.007825032070
           H         -0.000000132302    -0.000000090787     3.681981683022     1.007825032070
           H         -1.706212132302     1.313618909213     2.444111683022     1.007825032070
           H         -1.730111132302     1.301150909213    -0.024627316978     1.007825032070
           N         -0.712589132302    -0.905950090787    -2.322235316978    14.003074004780
           N          0.712589867698     0.905949909213    -2.322235316978    14.003074004780
           H          0.673431867698     1.006469909213    -3.329771316978     1.007825032070
           H          1.377189867698     1.485969909213    -1.827091316978     1.007825032070
           H         -1.377189132302    -1.485970090787    -1.827091316978     1.007825032070
           H         -0.673431132302    -1.006470090787    -3.329771316978     1.007825032070

  Running in c1 symmetry.

  Rotational constants: A =      0.12190  B =      0.03652  C =      0.03351 [cm^-1]
  Rotational constants: A =   3654.48825  B =   1094.96096  C =   1004.46080 [MHz]
  Nuclear repulsion =  415.782931078283809

  Charge       = 1
  Multiplicity = 1
  Electrons    = 64
  Nalpha       = 32
  Nbeta        = 32

  ==> Algorithm <==

  SCF Algorithm Type is DF.
  DIIS enabled.
  MOM disabled.
  Fractional occupation disabled.
  Guess Type is SAD.
  Energy threshold   = 1.00e-08
  Density threshold  = 1.00e-08
  Integral threshold = 0.00e+00

  ==> Primary Basis <==

  Basis Set: 6-31G*
    Blend: 6-31G*
    Number of shells: 72
    Number of basis function: 153
    Number of Cartesian functions: 153
    Spherical Harmonics?: false
    Max angular momentum: 2

  ==> DFT Potential <==

   => B3LYP Composite Functional <= 

    B3LYP Hybrid-GGA Exchange-Correlation Functional (VWN1-RPA)

    P.J. Stephens et. al., J. Phys. Chem., 98, 11623-11627, 1994

    Points   =           5000
    Deriv    =              1
    GGA      =           TRUE
    Meta     =          FALSE

    X_LRC        =          FALSE
    X_Hybrid     =           TRUE
    X_Alpha      =   2.000000E-01
    X_Omega      =   0.000000E+00
    C_LRC        =          FALSE
    C_Hybrid     =          FALSE
    C_Alpha      =   0.000000E+00
    C_Omega      =   0.000000E+00

   => Exchange Functionals <=

    0.8000    B3_X
    0.2000      HF 

   => Correlation Functionals <=

    0.1900 VWN3RPA_C
    0.8100   LYP_C

   => Molecular Quadrature <=

    Radial Scheme    =       TREUTLER
    Pruning Scheme   =           FLAT
    Nuclear Scheme   =       TREUTLER

    BS radius alpha  =              1
    Pruning alpha    =              1
    Radial Points    =             75
    Spherical Points =            302
    Total Points     =         397340
    Total Blocks     =            366
    Max Points       =           4787
    Max Functions    =            151

   => -D3ZERO: Empirical Dispersion <=

    Grimme's -D3 (zero-damping) Dispersion Correction
    Grimme S.; Antony J.; Ehrlich S.; Krieg H. (2010), J. Chem. Phys., 132: 154104

        S6 =   1.000000E+00
        S8 =   1.703000E+00
       SR6 =   1.261000E+00
    ALPHA6 =   1.400000E+01

   => Loading Basis Set <=

    Name: (6-31G* AUX)
    Role: JKFIT
    Keyword: DF_BASIS_SCF
    atoms 1-7         entry C          line   120 file /home/raimis/opt/miniconda3/envs/htmd/share/psi4/basis/cc-pvdz-jkfit.gbs 
    atoms 8-12, 15-18 entry H          line    50 file /home/raimis/opt/miniconda3/envs/htmd/share/psi4/basis/cc-pvdz-jkfit.gbs 
    atoms 13-14       entry N          line   170 file /home/raimis/opt/miniconda3/envs/htmd/share/psi4/basis/cc-pvdz-jkfit.gbs 

  ==> Pre-Iterations <==

   -------------------------------------------------------
    Irrep   Nso     Nmo     Nalpha   Nbeta   Ndocc  Nsocc
   -------------------------------------------------------
     A        153     153       0       0       0       0
   -------------------------------------------------------
    Total     153     153      32      32      32       0
   -------------------------------------------------------

  ==> Integral Setup <==

  ==> DFJK: Density-Fitted J/K Matrices <==

    J tasked:                  Yes
    K tasked:                  Yes
    wK tasked:                  No
    OpenMP threads:              8
    Integrals threads:           8
    Memory (MB):              1430
    Algorithm:                Core
    Integral Cache:           NONE
    Schwarz Cutoff:          1E-12
    Fitting Condition:       1E-12

   => Auxiliary Basis Set <=

  Basis Set: (6-31G* AUX)
    Blend: CC-PVDZ-JKFIT
    Number of shells: 297
    Number of basis function: 954
    Number of Cartesian functions: 954
    Spherical Harmonics?: false
    Max angular momentum: 3

  Minimum eigenvalue in the overlap matrix is 4.8858170114E-04.
  Using Symmetric Orthogonalization.

  SCF Guess: Superposition of Atomic Densities via on-the-fly atomic UHF.

  ==> Iterations <==

                           Total Energy        Delta E     RMS |[F,P]|

   @DF-RKS iter   0:  -379.63449644694128   -3.79634e+02   6.72033e-02 
   @DF-RKS iter   1:  -381.03198703601453   -1.39749e+00   9.24334e-03 
   @DF-RKS iter   2:  -380.96549501647866    6.64920e-02   1.28996e-02 DIIS
   @DF-RKS iter   3:  -381.45425114025642   -4.88756e-01   9.51862e-04 DIIS
   @DF-RKS iter   4:  -381.45932820559023   -5.07707e-03   8.85940e-04 DIIS
   @DF-RKS iter   5:  -381.46177451559475   -2.44631e-03   1.62369e-04 DIIS
   @DF-RKS iter   6:  -381.46192141133662   -1.46896e-04   5.81246e-05 DIIS
   @DF-RKS iter   7:  -381.46194006647414   -1.86551e-05   1.26587e-05 DIIS
   @DF-RKS iter   8:  -381.46194130476192   -1.23829e-06   4.36464e-06 DIIS
   @DF-RKS iter   9:  -381.46194140785218   -1.03090e-07   1.59852e-06 DIIS
   @DF-RKS iter  10:  -381.46194142273140   -1.48792e-08   5.05441e-07 DIIS
   @DF-RKS iter  11:  -381.46194142351618   -7.84780e-10   7.10434e-08 DIIS
   @DF-RKS iter  12:  -381.46194142353949   -2.33058e-11   4.06182e-08 DIIS
   @DF-RKS iter  13:  -381.46194142354625   -6.76437e-12   1.22584e-08 DIIS
   @DF-RKS iter  14:  -381.46194142354739   -1.13687e-12   7.98445e-09 DIIS

  ==> Post-Iterations <==

    Orbital Energies (a.u.)
    -----------------------

    Doubly Occupied:                                                      

       1A    -14.576612     2A    -14.576604     3A    -10.505213  
       4A    -10.367609     5A    -10.348921     6A    -10.348913  
       7A    -10.333086     8A    -10.332728     9A    -10.332321  
      10A     -1.190247    11A     -1.097864    12A     -1.008350  
      13A     -0.923810    14A     -0.894632    15A     -0.845806  
      16A     -0.788688    17A     -0.762837    18A     -0.755149  
      19A     -0.728667    20A     -0.693502    21A     -0.667820  
      22A     -0.621847    23A     -0.617576    24A     -0.574681  
      25A     -0.573677    26A     -0.566473    27A     -0.514377  
      28A     -0.497645    29A     -0.490042    30A     -0.479418  
      31A     -0.403559    32A     -0.397953  

    Virtual:                                                              

      33A     -0.202596    34A     -0.164147    35A     -0.146207  
      36A     -0.114976    37A     -0.068280    38A     -0.063836  
      39A     -0.034846    40A     -0.028379    41A      0.009717  
      42A      0.014425    43A      0.025394    44A      0.054615  
      45A      0.060819    46A      0.073670    47A      0.141123  
      48A      0.148924    49A      0.165945    50A      0.189859  
      51A      0.202814    52A      0.207629    53A      0.292319  
      54A      0.344373    55A      0.356471    56A      0.376387  
      57A      0.394183    58A      0.397320    59A      0.402359  
      60A      0.425190    61A      0.440590    62A      0.453365  
      63A      0.457781    64A      0.466501    65A      0.477453  
      66A      0.481738    67A      0.481795    68A      0.495434  
      69A      0.514992    70A      0.530383    71A      0.565059  
      72A      0.572961    73A      0.599166    74A      0.629468  
      75A      0.666850    76A      0.675735    77A      0.680997  
      78A      0.682389    79A      0.701062    80A      0.711923  
      81A      0.732947    82A      0.749859    83A      0.779745  
      84A      0.784706    85A      0.812793    86A      0.831563  
      87A      0.852700    88A      0.940979    89A      0.967665  
      90A      1.009148    91A      1.020604    92A      1.024610  
      93A      1.033976    94A      1.087130    95A      1.131340  
      96A      1.182702    97A      1.206908    98A      1.292650  
      99A      1.293046   100A      1.331474   101A      1.332638  
     102A      1.364494   103A      1.364842   104A      1.388414  
     105A      1.441193   106A      1.465788   107A      1.506502  
     108A      1.575406   109A      1.603967   110A      1.659838  
     111A      1.682312   112A      1.739567   113A      1.765460  
     114A      1.798011   115A      1.823490   116A      1.842945  
     117A      1.892611   118A      1.910547   119A      1.971098  
     120A      1.995164   121A      1.997531   122A      1.999545  
     123A      2.039716   124A      2.068301   125A      2.114365  
     126A      2.136650   127A      2.163363   128A      2.201563  
     129A      2.212531   130A      2.281911   131A      2.385986  
     132A      2.399600   133A      2.400025   134A      2.429888  
     135A      2.509096   136A      2.575151   137A      2.578403  
     138A      2.590329   139A      2.630116   140A      2.640467  
     141A      2.704434   142A      2.887502   143A      2.908055  
     144A      3.257907   145A      3.626292   146A      3.632974  
     147A      3.945883   148A      3.968314   149A      3.989963  
     150A      4.131814   151A      4.178277   152A      4.263612  
     153A      4.555860  

    Final Occupation by Irrep:
              A 
    DOCC [    32 ]

  Energy converged.

  @DF-RKS Final Energy:  -381.46194142354739

   => Energetics <=

    Nuclear Repulsion Energy =            415.7829310782838093
    One-Electron Energy =               -1326.9119598945817415
    Two-Electron Energy =                 574.0805807970127717
    DFT Exchange-Correlation Energy =     -44.4019287942622114
    Empirical Dispersion Energy =          -0.0115646100000000
    PCM Polarization Energy =               0.0000000000000000
    EFP Energy =                            0.0000000000000000
    Total Energy =                       -381.4619414235473869



Properties will be evaluated at   0.000000,   0.000000,   0.000000 Bohr

Properties computed using the SCF density matrix

  Nuclear Dipole Moment: (a.u.)
     X:     0.0000      Y:    -0.0000      Z:    -1.6672

  Electronic Dipole Moment: (a.u.)
     X:    -0.0000      Y:     0.0000      Z:    -0.9375

  Dipole Moment: (a.u.)
     X:    -0.0000      Y:    -0.0000      Z:    -2.6047     Total:     2.6047

  Dipole Moment: (Debye)
     X:    -0.0000      Y:    -0.0000      Z:    -6.6204     Total:     6.6204


*** tstop() called on computer03 at Fri Aug 11 20:19:17 2017
Module time:
	user time   =     106.30 seconds =       1.77 minutes
	system time =       2.16 seconds =       0.04 minutes
	total time  =         70 seconds =       1.17 minutes
Total time:
	user time   =     106.30 seconds =       1.77 minutes
	system time =       2.16 seconds =       0.04 minutes
	total time  =         70 seconds =       1.17 minutes

*** tstart() called on computer03
*** at Fri Aug 11 20:19:17 2017


         ------------------------------------------------------------
                                   SCF GRAD                          
                          Rob Parrish, Justin Turney,                
                       Andy Simmonett, and Alex Sokolov              
         ------------------------------------------------------------

  ==> Geometry <==

    Molecular point group: c1
    Full point group: C1

    Geometry (in Angstrom), charge = 1, multiplicity = 1:

       Center              X                  Y                   Z               Mass       
    ------------   -----------------  -----------------  -----------------  -----------------
           C         -0.000000132302    -0.000000090787    -0.191639316978    12.000000000000
           C          0.958852867698    -0.754201090787     0.510390683022    12.000000000000
           C          0.956742867698    -0.746533090787     1.901669683022    12.000000000000
           C         -0.000000132302    -0.000000090787     2.596332683022    12.000000000000
           C         -0.956743132302     0.746532909213     1.901669683022    12.000000000000
           C         -0.958853132302     0.754201909213     0.510390683022    12.000000000000
           C         -0.000000132302    -0.000000090787    -1.658508316978    12.000000000000
           H          1.730110867698    -1.301151090787    -0.024627316978     1.007825032070
           H          1.706211867698    -1.313620090787     2.444111683022     1.007825032070
           H         -0.000000132302    -0.000000090787     3.681981683022     1.007825032070
           H         -1.706212132302     1.313618909213     2.444111683022     1.007825032070
           H         -1.730111132302     1.301150909213    -0.024627316978     1.007825032070
           N         -0.712589132302    -0.905950090787    -2.322235316978    14.003074004780
           N          0.712589867698     0.905949909213    -2.322235316978    14.003074004780
           H          0.673431867698     1.006469909213    -3.329771316978     1.007825032070
           H          1.377189867698     1.485969909213    -1.827091316978     1.007825032070
           H         -1.377189132302    -1.485970090787    -1.827091316978     1.007825032070
           H         -0.673431132302    -1.006470090787    -3.329771316978     1.007825032070

  Nuclear repulsion =  415.782931078283809

  ==> Basis Set <==

  Basis Set: 6-31G*
    Blend: 6-31G*
    Number of shells: 72
    Number of basis function: 153
    Number of Cartesian functions: 153
    Spherical Harmonics?: false
    Max angular momentum: 2

  ==> DFJKGrad: Density-Fitted SCF Gradients <==

    Gradient:                    1
    J tasked:                  Yes
    K tasked:                  Yes
    wK tasked:                  No
    OpenMP threads:              8
    Integrals threads:           8
    Memory (MB):              1430
    Schwarz Cutoff:          0E+00
    Fitting Condition:       1E-12

   => Auxiliary Basis Set <=

  Basis Set: (6-31G* AUX)
    Blend: CC-PVDZ-JKFIT
    Number of shells: 297
    Number of basis function: 954
    Number of Cartesian functions: 954
    Spherical Harmonics?: false
    Max angular momentum: 3

  ==> DFT Potential <==

   => B3LYP Composite Functional <= 

    B3LYP Hybrid-GGA Exchange-Correlation Functional (VWN1-RPA)

    P.J. Stephens et. al., J. Phys. Chem., 98, 11623-11627, 1994

    Points   =           5000
    Deriv    =              1
    GGA      =           TRUE
    Meta     =          FALSE

    X_LRC        =          FALSE
    X_Hybrid     =           TRUE
    X_Alpha      =   2.000000E-01
    X_Omega      =   0.000000E+00
    C_LRC        =          FALSE
    C_Hybrid     =          FALSE
    C_Alpha      =   0.000000E+00
    C_Omega      =   0.000000E+00

   => Exchange Functionals <=

    0.8000    B3_X
    0.2000      HF 

   => Correlation Functionals <=

    0.1900 VWN3RPA_C
    0.8100   LYP_C

   => Molecular Quadrature <=

    Radial Scheme    =       TREUTLER
    Pruning Scheme   =           FLAT
    Nuclear Scheme   =       TREUTLER

    BS radius alpha  =              1
    Pruning alpha    =              1
    Radial Points    =             75
    Spherical Points =            302
    Total Points     =         397340
    Total Blocks     =            366
    Max Points       =           4787
    Max Functions    =            151


  -Total Gradient:
     Atom            X                  Y                   Z
    ------   -----------------  -----------------  -----------------
       1        0.000000281025    -0.000000392925    -0.016421628453
       2       -0.001768420143    -0.002921962760     0.005150384685
       3        0.001681039315    -0.002167957264    -0.002265081805
       4       -0.000000026756     0.000000024364     0.000173116962
       5       -0.001681197864     0.002168009319    -0.002264847081
       6        0.001767966553     0.002922569617     0.005150316841
       7       -0.000000383192    -0.000000189854     0.016706019343
       8        0.001527802675     0.001703222518     0.000880465019
       9        0.000127842394     0.000438446324     0.000190391449
      10        0.000000014406     0.000000009020     0.000005112964
      11       -0.000127630086    -0.000438653154     0.000190225244
      12       -0.001527611028    -0.001703410155     0.000880566120
      13       -0.001337805404    -0.005049406105    -0.003850223599
      14        0.001338120139     0.005049676409    -0.003850378653
      15       -0.001678842568     0.001038627940     0.001605798793
      16        0.001735700303    -0.002236735456    -0.001943702438
      17       -0.001735678995     0.002236753823    -0.001943673854
      18        0.001678829156    -0.001038631694     0.001605809809


*** tstop() called on computer03 at Fri Aug 11 20:19:30 2017
Module time:
	user time   =      24.54 seconds =       0.41 minutes
	system time =       0.58 seconds =       0.01 minutes
	total time  =         13 seconds =       0.22 minutes
Total time:
	user time   =     130.91 seconds =       2.18 minutes
	system time =       2.75 seconds =       0.05 minutes
	total time  =         83 seconds =       1.38 minutes

			-----------------------------------------
			 OPTKING 2.0: for geometry optimizations 
			  - R.A. King,  Bethel University        
			-----------------------------------------
	At level 1: Red. Int., RFO, no backsteps, dynamic trust

	Internal coordinates to be generated automatically.
	Detected frag 1 with atoms:  1 2 3 4 5 6 7 8 9 10 11 12 13 14 15 16 17 18
	---Fragment 1 Bond Connectivity---
	 1 : 2 6 7
	 2 : 1 3 8
	 3 : 2 4 9
	 4 : 3 5 10
	 5 : 4 6 11
	 6 : 1 5 12
	 7 : 1 13 14
	 8 : 2
	 9 : 3
	 10 : 4
	 11 : 5
	 12 : 6
	 13 : 7 17 18
	 14 : 7 15 16
	 15 : 14
	 16 : 14
	 17 : 13
	 18 : 13

	Assuming in current code that numbering for constraints corresponds to unified fragment.
	Frozen dihedral atom list: 
	     2     1     7    13
	---Fragment 1 Geometry and Gradient---
	 C          -0.0000002500       -0.0000001716       -0.3621458254
	 C           1.8119693217       -1.4252335107        0.9644986117
	 C           1.8079819995       -1.4107430907        3.5936348961
	 C          -0.0000002500       -0.0000001716        4.9063577208
	 C          -1.8079824996        1.4107427476        3.5936348961
	 C          -1.8119698217        1.4252350573        0.9644986117
	 C          -0.0000002500       -0.0000001716       -3.1341265082
	 H           3.2694357195       -2.4588192191       -0.0465388845
	 H           3.2242731546       -2.4823822142        4.6187017191
	 H          -0.0000002500       -0.0000001716        6.9579370072
	 H          -3.2242736547        2.4823799814        4.6187017191
	 H          -3.2694362195        2.4588188760       -0.0465388845
	 N          -1.3465983053       -1.7119975617       -4.3883887652
	 N           1.3465996950        1.7119972185       -4.3883887652
	 H           1.2726017991        1.9019524894       -6.2923558742
	 H           2.6025116829        2.8080761701       -3.4527022089
	 H          -2.6025102932       -2.8080765132       -3.4527022089
	 H          -1.2726004094       -1.9019528325       -6.2923558742
	             0.0000002810       -0.0000003929       -0.0164216285
	            -0.0017684201       -0.0029219628        0.0051503847
	             0.0016810393       -0.0021679573       -0.0022650818
	            -0.0000000268        0.0000000244        0.0001731170
	            -0.0016811979        0.0021680093       -0.0022648471
	             0.0017679666        0.0029225696        0.0051503168
	            -0.0000003832       -0.0000001899        0.0167060193
	             0.0015278027        0.0017032225        0.0008804650
	             0.0001278424        0.0004384463        0.0001903914
	             0.0000000144        0.0000000090        0.0000051130
	            -0.0001276301       -0.0004386532        0.0001902252
	            -0.0015276110       -0.0017034102        0.0008805661
	            -0.0013378054       -0.0050494061       -0.0038502236
	             0.0013381201        0.0050496764       -0.0038503787
	            -0.0016788426        0.0010386279        0.0016057988
	             0.0017357003       -0.0022367355       -0.0019437024
	            -0.0017356790        0.0022367538       -0.0019436739
	             0.0016788292       -0.0010386317        0.0016058098

	Previous optimization step data not found.  Starting new optimization.

	---Fragment 1 Intrafragment Coordinates---
	 - Coordinate -           - BOHR/RAD -       - ANG/DEG -
	 R(1,2)           =         2.659795	       1.407503
	 R(1,6)           =         2.659796	       1.407503
	 R(1,7)           =         2.771981	       1.466869
	 R(2,3)           =         2.629179	       1.391302
	 R(2,8)           =         2.052975	       1.086387
	 R(3,4)           =         2.642392	       1.398294
	 R(3,9)           =         2.050623	       1.085143
	 R(4,5)           =         2.642392	       1.398294
	 R(4,10)          =         2.051579	       1.085649
	 R(5,6)           =         2.629179	       1.391302
	 R(5,11)          =         2.050622	       1.085142
	 R(6,12)          =         2.052974	       1.086387
	 R(7,13)          =         2.513451	       1.330061
	 R(7,14)          =         2.513452	       1.330061
	 R(13,17)         =         1.911600	       1.011575
	 R(13,18)         =         1.914850	       1.013295
	 R(14,15)         =         1.914850	       1.013295
	 R(14,16)         =         1.911600	       1.011575
	 B(1,2,3)         =         2.088381	     119.655404
	 B(1,2,8)         =         2.103396	     120.515704
	 B(1,6,5)         =         2.088380	     119.655365
	 B(1,6,12)        =         2.103396	     120.515698
	 B(1,7,13)        =         2.093264	     119.935185
	 B(1,7,14)        =         2.093264	     119.935172
	 B(2,1,6)         =         2.097219	     120.161779
	 B(2,1,7)         =         2.092983	     119.919117
	 B(2,3,4)         =         2.095279	     120.050648
	 B(2,3,9)         =         2.089719	     119.732082
	 B(3,2,8)         =         2.090148	     119.756685
	 B(3,4,5)         =         2.101793	     120.423852
	 B(3,4,10)        =         2.090696	     119.788074
	 B(4,3,9)         =         2.098136	     120.214311
	 B(4,5,6)         =         2.095280	     120.050673
	 B(4,5,11)        =         2.098135	     120.214294
	 B(5,4,10)        =         2.090696	     119.788074
	 B(5,6,12)        =         2.090149	     119.756724
	 B(6,1,7)         =         2.092983	     119.919104
	 B(6,5,11)        =         2.089719	     119.732073
	 B(7,13,17)       =         2.092411	     119.886337
	 B(7,13,18)       =         2.144861	     122.891462
	 B(7,14,15)       =         2.144860	     122.891445
	 B(7,14,16)       =         2.092412	     119.886356
	 B(13,7,14)       =         2.096658	     120.129643
	 B(15,14,16)      =         2.043399	     117.078143
	 B(17,13,18)      =         2.043399	     117.078143
	 D(1,2,3,4)       =         0.007798	       0.446803
	 D(1,2,3,9)       =        -3.122897	    -178.928805
	 D(1,6,5,4)       =         0.007799	       0.446877
	 D(1,6,5,11)      =        -3.122895	    -178.928720
	 D(1,7,13,17)     =         0.187845	      10.762714
	 D(1,7,13,18)     =        -3.032164	    -173.730222
	 D(1,7,14,15)     =        -3.032164	    -173.730221
	 D(1,7,14,16)     =         0.187844	      10.762677
	 D(2,1,6,5)       =        -0.003907	      -0.223868
	 D(2,1,6,12)      =        -3.091438	    -177.126341
	*D(2,1,7,13)      =         1.570796	      89.999988
	 D(2,1,7,14)      =        -1.570796	     -89.999973
	 D(2,3,4,5)       =        -0.003942	      -0.225865
	 D(2,3,4,10)      =         3.137651	     179.774135
	 D(3,2,1,6)       =        -0.003905	      -0.223757
	 D(3,2,1,7)       =         3.137687	     179.776206
	 D(3,4,5,6)       =        -0.003943	      -0.225902
	 D(3,4,5,11)      =         3.126699	     179.146657
	 D(4,3,2,8)       =         3.095746	     177.373152
	 D(4,5,6,12)      =         3.095745	     177.373102
	 D(5,4,3,9)       =         3.126700	     179.146706
	 D(5,6,1,7)       =         3.137686	     179.776169
	 D(6,1,2,8)       =        -3.091438	    -177.126353
	 D(6,1,7,13)      =        -1.570797	     -90.000049
	 D(6,1,7,14)      =         1.570796	      89.999990
	 D(6,5,4,10)      =         3.137650	     179.774098
	 D(7,1,2,8)       =         0.050154	       2.873610
	 D(7,1,6,12)      =         0.050155	       2.873696
	 D(8,2,3,9)       =        -0.034949	      -2.002456
	 D(9,3,4,10)      =        -0.014893	      -0.853294
	 D(10,4,5,11)     =        -0.014894	      -0.853343
	 D(11,5,6,12)     =        -0.034950	      -2.002495
	 D(13,7,14,15)    =         0.109429	       6.269819
	 D(13,7,14,16)    =        -2.953748	    -169.237284
	 D(14,7,13,17)    =        -2.953749	    -169.237325
	 D(14,7,13,18)    =         0.109428	       6.269739

	Current energy   :      -381.4619414235

	Generating empirical Hessian (Schlegel '84) for each fragment.
	Taking RFO optimization step.
	Going to follow RFO solution 1.
	Using RFO vector 1.
	Norm of target step-size    0.30948
	Projected energy change by RFO approximation:        -0.0026293662

	Back-transformation to cartesian coordinates...
	Could not converge backtransformation.
	Using first guess instead.

	Back-transformation to cartesian coordinates to adjust frozen coordinates...
	Successfully converged to displaced geometry.

	--- Internal Coordinate Step in ANG or DEG, aJ/ANG or AJ/DEG ---
	 ---------------------------------------------------------------------------
	   Coordinate                Previous        Force       Change         New 
	   ----------                --------       ------       ------       ------
	    1 R(1,2)          =      1.407503    -0.031592    -0.004651     1.402852
	    2 R(1,6)          =      1.407503    -0.031594    -0.004559     1.402945
	    3 R(1,7)          =      1.466869     0.068630     0.012136     1.479005
	    4 R(2,3)          =      1.391302     0.016398     0.002231     1.393533
	    5 R(2,8)          =      1.086387     0.001702     0.001656     1.088043
	    6 R(3,4)          =      1.398294    -0.007205    -0.000834     1.397459
	    7 R(3,9)          =      1.085143     0.000376     0.000312     1.085455
	    8 R(4,5)          =      1.398294    -0.007203    -0.000852     1.397442
	    9 R(4,10)         =      1.085649    -0.000043     0.000007     1.085656
	   10 R(5,6)          =      1.391302     0.016401     0.002265     1.393566
	   11 R(5,11)         =      1.085142     0.000379     0.000538     1.085681
	   12 R(6,12)         =      1.086387     0.001704     0.001796     1.088182
	   13 R(7,13)         =      1.330061    -0.044985    -0.004794     1.325267
	   14 R(7,14)         =      1.330061    -0.044989    -0.004369     1.325693
	   15 R(13,17)        =      1.011575     0.009008     0.007032     1.018607
	   16 R(13,18)        =      1.013295     0.011772     0.003916     1.017211
	   17 R(14,15)        =      1.013295     0.011772     0.003207     1.016502
	   18 R(14,16)        =      1.011575     0.009008     0.007469     1.019044
	   19 B(1,2,3)        =    119.655404    -0.000126    -0.414368   119.241036
	   20 B(1,2,8)        =    120.515704     0.000000    -0.064495   120.451209
	   21 B(1,6,5)        =    119.655365    -0.000126    -0.414966   119.240399
	   22 B(1,6,12)       =    120.515698    -0.000000    -0.030192   120.485505
	   23 B(1,7,13)       =    119.935185    -0.000179    -0.530061   119.405124
	   24 B(1,7,14)       =    119.935172    -0.000179    -0.548458   119.386714
	   25 B(2,1,6)        =    120.161779     0.000252     0.702763   120.864542
	   26 B(2,1,7)        =    119.919117    -0.000126    -0.353500   119.565617
	   27 B(2,3,4)        =    120.050648     0.000022     0.107926   120.158574
	   28 B(2,3,9)        =    119.732082    -0.000031    -0.149433   119.582649
	   29 B(3,2,8)        =    119.756685     0.000130     0.550155   120.306840
	   30 B(3,4,5)        =    120.423852    -0.000044    -0.086756   120.337095
	   31 B(3,4,10)       =    119.788074     0.000022     0.045008   119.833082
	   32 B(4,3,9)        =    120.214311     0.000009     0.043788   120.258099
	   33 B(4,5,6)        =    120.050673     0.000022     0.105234   120.155907
	   34 B(4,5,11)       =    120.214294     0.000009     0.037764   120.252059
	   35 B(5,4,10)       =    119.788074     0.000022     0.041579   119.829654
	   36 B(5,6,12)       =    119.756724     0.000130     0.517073   120.273796
	   37 B(6,1,7)        =    119.919104    -0.000126    -0.359834   119.559270
	   38 B(6,5,11)       =    119.732073    -0.000031    -0.141550   119.590524
	   39 B(7,13,17)      =    119.886337    -0.000114    -0.620799   119.265538
	   40 B(7,13,18)      =    122.891462     0.000078     0.280534   123.171996
	   41 B(7,14,15)      =    122.891445     0.000078     0.248544   123.139989
	   42 B(7,14,16)      =    119.886356    -0.000114    -0.514569   119.371788
	   43 B(13,7,14)      =    120.129643     0.000357     1.068492   121.198135
	   44 B(15,14,16)     =    117.078143     0.000040     0.363249   117.441392
	   45 B(17,13,18)     =    117.078143     0.000040     0.437425   117.515569
	   46 D(1,2,3,4)      =      0.446803    -0.000004    -0.674720    -0.227917
	   47 D(1,2,3,9)      =   -178.928805    -0.000010    -1.597866  -180.526671
	   48 D(1,6,5,4)      =      0.446877    -0.000002    -0.234605     0.212273
	   49 D(1,6,5,11)     =   -178.928720    -0.000008    -1.305009  -180.233730
	   50 D(1,7,13,17)    =     10.762714    -0.000047    -6.643588     4.119126
	   51 D(1,7,13,18)    =   -173.730222    -0.000033    -4.705438  -178.435660
	   52 D(1,7,14,15)    =   -173.730221    -0.000027    -3.580267  -177.310487
	   53 D(1,7,14,16)    =     10.762677    -0.000041    -5.518451     5.244226
	   54 D(2,1,6,5)      =     -0.223868    -0.000001    -0.331609    -0.555476
	   55 D(2,1,6,12)     =   -177.126341    -0.000023    -3.627633  -180.753973
	   56 *D(2,1,7,13)    =     89.999988    -0.000000    -0.000000    89.999988
	   57 D(2,1,7,14)     =    -89.999973    -0.000006    -1.137919   -91.137892
	   58 D(2,3,4,5)      =     -0.225865     0.000001     0.117387    -0.108477
	   59 D(2,3,4,10)     =    179.774135     0.000002     0.267082   180.041217
	   60 D(3,2,1,6)      =     -0.223757     0.000004     0.787042     0.563285
	   61 D(3,2,1,7)      =    179.776206    -0.000001    -0.400843   179.375363
	   62 D(3,4,5,6)      =     -0.225902     0.000002     0.342305     0.116403
	   63 D(3,4,5,11)     =    179.146657     0.000009     1.418721   180.565379
	   64 D(4,3,2,8)      =    177.373152     0.000017     2.745406   180.118558
	   65 D(4,5,6,12)     =    177.373102     0.000019     3.037238   180.410340
	   66 D(5,4,3,9)      =    179.146706     0.000007     1.045605   180.192311
	   67 D(5,6,1,7)      =    179.776169     0.000004     0.856202   180.632371
	   68 D(6,1,2,8)      =   -177.126353    -0.000018    -2.657348  -179.783702
	   69 D(6,1,7,13)     =    -90.000049    -0.000005    -1.172228   -91.172277
	   70 D(6,1,7,14)     =     89.999990    -0.000011    -2.310147    87.689843
	   71 D(6,5,4,10)     =    179.774098     0.000001     0.192615   179.966713
	   72 D(7,1,2,8)      =      2.873610    -0.000024    -3.845234    -0.971624
	   73 D(7,1,6,12)     =      2.873696    -0.000017    -2.439822     0.433874
	   74 D(8,2,3,9)      =     -2.002456     0.000011     1.822260    -0.180197
	   75 D(9,3,4,10)     =     -0.853294     0.000008     1.195300     0.342006
	   76 D(10,4,5,11)    =     -0.853343     0.000008     1.269032     0.415689
	   77 D(11,5,6,12)    =     -2.002495     0.000012     1.966833    -0.035662
	   78 D(13,7,14,15)   =      6.269819    -0.000033    -4.739192     1.530627
	   79 D(13,7,14,16)   =   -169.237284    -0.000047    -6.677376  -175.914660
	   80 D(14,7,13,17)   =   -169.237325    -0.000041    -5.484454  -174.721779
	   81 D(14,7,13,18)   =      6.269739    -0.000027    -3.546303     2.723436
	 ---------------------------------------------------------------------------
	Successfully symmetrized geometry.

  ==> Convergence Check <==

  Measures of convergence in internal coordinates in au.
  Criteria marked as inactive (o), active & met (*), and active & unmet ( ).
  --------------------------------------------------------------------------------------------- ~
   Step     Total Energy     Delta E     MAX Force     RMS Force      MAX Disp      RMS Disp    ~
  --------------------------------------------------------------------------------------------- ~
    Convergence Criteria    1.00e-06 *    3.00e-04 *             o    1.20e-03 *             o  ~
  --------------------------------------------------------------------------------------------- ~
      1    -381.46194142   -3.81e+02      8.33e-03      1.90e-03 o    1.17e-01      3.44e-02 o  ~
  ---------------------------------------------------------------------------------------------

	Writing optimization data to binary file.
	Structure for next step:
	Cartesian Geometry (in Angstrom)
	    C    -0.0036658906  -0.0130223666  -0.1883252328
	    C     0.9568562483  -0.7631176625   0.5064747472
	    C     0.9518057456  -0.7519331596   1.8999537088
	    C     0.0016544462   0.0033239945   2.5925518513
	    C    -0.9482538197   0.7541279096   1.8948326972
	    C    -0.9557280394   0.7526580569   0.5012872770
	    C     0.0037305137  -0.0086642066  -1.6673049765
	    H     1.6943205778  -1.3518137003  -0.0352084864
	    H     1.6871000381  -1.3371129370   2.4432019608
	    H     0.0029769143   0.0087424599   3.6781930980
	    H    -1.6800275463   1.3476279392   2.4342464950
	    H    -1.6903408276   1.3418583286  -0.0439906513
	    N    -0.7008008303  -0.9188584261  -2.3242033516
	    N     0.6968625916   0.9197052679  -2.3116336445
	    H     0.7099131764   1.0002830809  -3.3248525210
	    H     1.2786051401   1.5670145532  -1.7815235519
	    H    -1.2865807492  -1.5677837174  -1.8014041940
	    H    -0.7184270704  -0.9830370489  -3.3392349308
			--------------------------
			 OPTKING Finished Execution 
			--------------------------

    Structure for next step:
    Molecular point group: c1
    Full point group: C1

    Geometry (in Angstrom), charge = 1, multiplicity = 1:

    C           -0.003824165666    -0.010695821183    -0.186452407740
    C            0.956697973272    -0.760791117067     0.508347572213
    C            0.951647470560    -0.749606614169     1.901826533778
    C            0.001496171128     0.005650539854     2.594424676308
    C           -0.948412094788     0.756454454984     1.896705522233
    C           -0.955886314491     0.754984602317     0.503160102010
    C            0.003572238616    -0.006337661189    -1.665432151511
    H            1.694162302788    -1.349487154901    -0.033335661346
    H            1.686941763053    -1.334786391580     2.445074785862
    H            0.002818639248     0.011069005322     3.680065923050
    H           -1.680185821354     1.349954484558     2.436119319999
    H           -1.690499102599     1.344184873979    -0.042117826241
    N           -0.700959105388    -0.916531880745    -2.322330526592
    N            0.696704316577     0.922031813251    -2.309760819525
    H            0.709754901334     1.002609626306    -3.322979696012
    H            1.278446865043     1.569341098545    -1.779650726842
    H           -1.286739024238    -1.565457172032    -1.799531369024
    H           -0.718585345401    -0.980710503465    -3.337362105798

gradient() will perform analytic gradient computation.

*** tstart() called on computer03
*** at Fri Aug 11 20:19:30 2017

   => Loading Basis Set <=

    Name: 6-31G*
    Role: ORBITAL
    Keyword: BASIS
    atoms 1-7         entry C          line   102 file /home/raimis/opt/miniconda3/envs/htmd/share/psi4/basis/6-31gs.gbs 
    atoms 8-12, 15-18 entry H          line    35 file /home/raimis/opt/miniconda3/envs/htmd/share/psi4/basis/6-31gs.gbs 
    atoms 13-14       entry N          line   119 file /home/raimis/opt/miniconda3/envs/htmd/share/psi4/basis/6-31gs.gbs 


         ---------------------------------------------------------
                                   SCF
            by Justin Turney, Rob Parrish, and Andy Simmonett
                              RKS Reference
                        8 Threads,   1907 MiB Core
         ---------------------------------------------------------

  ==> Geometry <==

    Molecular point group: c1
    Full point group: C1

    Geometry (in Angstrom), charge = 1, multiplicity = 1:

       Center              X                  Y                   Z               Mass       
    ------------   -----------------  -----------------  -----------------  -----------------
           C         -0.003824165666    -0.010695821183    -0.186452407740    12.000000000000
           C          0.956697973272    -0.760791117067     0.508347572213    12.000000000000
           C          0.951647470560    -0.749606614169     1.901826533778    12.000000000000
           C          0.001496171128     0.005650539854     2.594424676308    12.000000000000
           C         -0.948412094788     0.756454454984     1.896705522233    12.000000000000
           C         -0.955886314491     0.754984602317     0.503160102010    12.000000000000
           C          0.003572238616    -0.006337661189    -1.665432151511    12.000000000000
           H          1.694162302788    -1.349487154901    -0.033335661346     1.007825032070
           H          1.686941763053    -1.334786391580     2.445074785862     1.007825032070
           H          0.002818639248     0.011069005322     3.680065923050     1.007825032070
           H         -1.680185821354     1.349954484558     2.436119319999     1.007825032070
           H         -1.690499102599     1.344184873979    -0.042117826241     1.007825032070
           N         -0.700959105388    -0.916531880745    -2.322330526592    14.003074004780
           N          0.696704316577     0.922031813251    -2.309760819525    14.003074004780
           H          0.709754901334     1.002609626306    -3.322979696012     1.007825032070
           H          1.278446865043     1.569341098545    -1.779650726842     1.007825032070
           H         -1.286739024238    -1.565457172032    -1.799531369024     1.007825032070
           H         -0.718585345401    -0.980710503465    -3.337362105798     1.007825032070

  Running in c1 symmetry.

  Rotational constants: A =      0.12180  B =      0.03661  C =      0.03360 [cm^-1]
  Rotational constants: A =   3651.48163  B =   1097.53544  C =   1007.32949 [MHz]
  Nuclear repulsion =  415.954580626370614

  Charge       = 1
  Multiplicity = 1
  Electrons    = 64
  Nalpha       = 32
  Nbeta        = 32

  ==> Algorithm <==

  SCF Algorithm Type is DF.
  DIIS enabled.
  MOM disabled.
  Fractional occupation disabled.
  Guess Type is READ.
  Energy threshold   = 1.00e-08
  Density threshold  = 1.00e-08
  Integral threshold = 0.00e+00

  ==> Primary Basis <==

  Basis Set: 6-31G*
    Blend: 6-31G*
    Number of shells: 72
    Number of basis function: 153
    Number of Cartesian functions: 153
    Spherical Harmonics?: false
    Max angular momentum: 2

  ==> DFT Potential <==

   => B3LYP Composite Functional <= 

    B3LYP Hybrid-GGA Exchange-Correlation Functional (VWN1-RPA)

    P.J. Stephens et. al., J. Phys. Chem., 98, 11623-11627, 1994

    Points   =           5000
    Deriv    =              1
    GGA      =           TRUE
    Meta     =          FALSE

    X_LRC        =          FALSE
    X_Hybrid     =           TRUE
    X_Alpha      =   2.000000E-01
    X_Omega      =   0.000000E+00
    C_LRC        =          FALSE
    C_Hybrid     =          FALSE
    C_Alpha      =   0.000000E+00
    C_Omega      =   0.000000E+00

   => Exchange Functionals <=

    0.8000    B3_X
    0.2000      HF 

   => Correlation Functionals <=

    0.1900 VWN3RPA_C
    0.8100   LYP_C

   => Molecular Quadrature <=

    Radial Scheme    =       TREUTLER
    Pruning Scheme   =           FLAT
    Nuclear Scheme   =       TREUTLER

    BS radius alpha  =              1
    Pruning alpha    =              1
    Radial Points    =             75
    Spherical Points =            302
    Total Points     =         397376
    Total Blocks     =            366
    Max Points       =           4993
    Max Functions    =            151

   => -D3ZERO: Empirical Dispersion <=

    Grimme's -D3 (zero-damping) Dispersion Correction
    Grimme S.; Antony J.; Ehrlich S.; Krieg H. (2010), J. Chem. Phys., 132: 154104

        S6 =   1.000000E+00
        S8 =   1.703000E+00
       SR6 =   1.261000E+00
    ALPHA6 =   1.400000E+01

   => Loading Basis Set <=

    Name: (6-31G* AUX)
    Role: JKFIT
    Keyword: DF_BASIS_SCF
    atoms 1-7         entry C          line   120 file /home/raimis/opt/miniconda3/envs/htmd/share/psi4/basis/cc-pvdz-jkfit.gbs 
    atoms 8-12, 15-18 entry H          line    50 file /home/raimis/opt/miniconda3/envs/htmd/share/psi4/basis/cc-pvdz-jkfit.gbs 
    atoms 13-14       entry N          line   170 file /home/raimis/opt/miniconda3/envs/htmd/share/psi4/basis/cc-pvdz-jkfit.gbs 

  Reading orbitals from file 180, no projection.

  ==> Pre-Iterations <==

   -------------------------------------------------------
    Irrep   Nso     Nmo     Nalpha   Nbeta   Ndocc  Nsocc
   -------------------------------------------------------
     A        153     153       0       0       0       0
   -------------------------------------------------------
    Total     153     153      32      32      32       0
   -------------------------------------------------------

  ==> Integral Setup <==

  ==> DFJK: Density-Fitted J/K Matrices <==

    J tasked:                  Yes
    K tasked:                  Yes
    wK tasked:                  No
    OpenMP threads:              8
    Integrals threads:           8
    Memory (MB):              1430
    Algorithm:                Core
    Integral Cache:           NONE
    Schwarz Cutoff:          1E-12
    Fitting Condition:       1E-12

   => Auxiliary Basis Set <=

  Basis Set: (6-31G* AUX)
    Blend: CC-PVDZ-JKFIT
    Number of shells: 297
    Number of basis function: 954
    Number of Cartesian functions: 954
    Spherical Harmonics?: false
    Max angular momentum: 3

  Minimum eigenvalue in the overlap matrix is 4.8476046733E-04.
  Using Symmetric Orthogonalization.

  SCF Guess: Orbitals guess was supplied from a previous computation.

  ==> Iterations <==

                           Total Energy        Delta E     RMS |[F,P]|

   @DF-RKS iter   0:  -381.45206678037715   -3.81452e+02   1.12865e-03 
   @DF-RKS iter   1:  -381.46355236066586   -1.14856e-02   1.08813e-04 
   @DF-RKS iter   2:  -381.46357405822033   -2.16976e-05   1.21129e-04 DIIS
   @DF-RKS iter   3:  -381.46363428467271   -6.02265e-05   4.59748e-05 DIIS
   @DF-RKS iter   4:  -381.46364506718328   -1.07825e-05   1.00144e-05 DIIS
   @DF-RKS iter   5:  -381.46364556245339   -4.95270e-07   4.59298e-06 DIIS
   @DF-RKS iter   6:  -381.46364571864660   -1.56193e-07   5.95421e-07 DIIS
   @DF-RKS iter   7:  -381.46364571967666   -1.03006e-09   3.36503e-07 DIIS
   @DF-RKS iter   8:  -381.46364572010839   -4.31726e-10   8.12987e-08 DIIS
   @DF-RKS iter   9:  -381.46364572013516   -2.67733e-11   4.06880e-08 DIIS
   @DF-RKS iter  10:  -381.46364572014232   -7.16227e-12   5.61343e-09 DIIS

  ==> Post-Iterations <==

    Orbital Energies (a.u.)
    -----------------------

    Doubly Occupied:                                                      

       1A    -14.577400     2A    -14.577319     3A    -10.503831  
       4A    -10.367385     5A    -10.348481     6A    -10.348344  
       7A    -10.332956     8A    -10.332737     9A    -10.332018  
      10A     -1.190324    11A     -1.098173    12A     -1.008291  
      13A     -0.922059    14A     -0.894171    15A     -0.844668  
      16A     -0.787675    17A     -0.763139    18A     -0.755630  
      19A     -0.727622    20A     -0.690849    21A     -0.666675  
      22A     -0.623363    23A     -0.615526    24A     -0.576362  
      25A     -0.572810    26A     -0.566286    27A     -0.514920  
      28A     -0.496292    29A     -0.490373    30A     -0.479979  
      31A     -0.403819    32A     -0.397480  

    Virtual:                                                              

      33A     -0.198013    34A     -0.162786    35A     -0.146374  
      36A     -0.117249    37A     -0.071598    38A     -0.065029  
      39A     -0.035030    40A     -0.030699    41A      0.009542  
      42A      0.014693    43A      0.024878    44A      0.054886  
      45A      0.060188    46A      0.073884    47A      0.138380  
      48A      0.150203    49A      0.165557    50A      0.192254  
      51A      0.200488    52A      0.210618    53A      0.291711  
      54A      0.341346    55A      0.357104    56A      0.381287  
      57A      0.392364    58A      0.400049    59A      0.402429  
      60A      0.426874    61A      0.439981    62A      0.453123  
      63A      0.456747    64A      0.464203    65A      0.478337  
      66A      0.479351    67A      0.481917    68A      0.494107  
      69A      0.515788    70A      0.526890    71A      0.566132  
      72A      0.577191    73A      0.599144    74A      0.626614  
      75A      0.664593    76A      0.674771    77A      0.677075  
      78A      0.677547    79A      0.699655    80A      0.712374  
      81A      0.733159    82A      0.749139    83A      0.780334  
      84A      0.789232    85A      0.812993    86A      0.833953  
      87A      0.852218    88A      0.942460    89A      0.966892  
      90A      1.013354    91A      1.015689    92A      1.027198  
      93A      1.035087    94A      1.091402    95A      1.139980  
      96A      1.183816    97A      1.207556    98A      1.293388  
      99A      1.305162   100A      1.326906   101A      1.332902  
     102A      1.362948   103A      1.365989   104A      1.387556  
     105A      1.441160   106A      1.468431   107A      1.510033  
     108A      1.575653   109A      1.586716   110A      1.662894  
     111A      1.681019   112A      1.742188   113A      1.770831  
     114A      1.796599   115A      1.820709   116A      1.849301  
     117A      1.898612   118A      1.914343   119A      1.974405  
     120A      1.994586   121A      1.998618   122A      1.999514  
     123A      2.041492   124A      2.076380   125A      2.120016  
     126A      2.141875   127A      2.154998   128A      2.181995  
     129A      2.220060   130A      2.286910   131A      2.381120  
     132A      2.403719   133A      2.405817   134A      2.429312  
     135A      2.510722   136A      2.572628   137A      2.573386  
     138A      2.593362   139A      2.633904   140A      2.642900  
     141A      2.700189   142A      2.890415   143A      2.906807  
     144A      3.260773   145A      3.631675   146A      3.633437  
     147A      3.946748   148A      3.967596   149A      3.992121  
     150A      4.130914   151A      4.178637   152A      4.264012  
     153A      4.556453  

    Final Occupation by Irrep:
              A 
    DOCC [    32 ]

  Energy converged.

  @DF-RKS Final Energy:  -381.46364572014232

   => Energetics <=

    Nuclear Repulsion Energy =            415.9545806263706140
    One-Electron Energy =               -1327.2813686687318295
    Two-Electron Energy =                 574.2718513562574572
    DFT Exchange-Correlation Energy =     -44.3971038140385730
    Empirical Dispersion Energy =          -0.0116052200000000
    PCM Polarization Energy =               0.0000000000000000
    EFP Energy =                            0.0000000000000000
    Total Energy =                       -381.4636457201422672



Properties will be evaluated at   0.000000,   0.000000,   0.000000 Bohr

Properties computed using the SCF density matrix

  Nuclear Dipole Moment: (a.u.)
     X:    -0.0036      Y:     0.0438      Z:    -1.6306

  Electronic Dipole Moment: (a.u.)
     X:     0.0020      Y:    -0.0323      Z:    -0.9761

  Dipole Moment: (a.u.)
     X:    -0.0016      Y:     0.0115      Z:    -2.6067     Total:     2.6068

  Dipole Moment: (Debye)
     X:    -0.0041      Y:     0.0293      Z:    -6.6257     Total:     6.6257


*** tstop() called on computer03 at Fri Aug 11 20:20:26 2017
Module time:
	user time   =      82.95 seconds =       1.38 minutes
	system time =       1.61 seconds =       0.03 minutes
	total time  =         56 seconds =       0.93 minutes
Total time:
	user time   =     214.41 seconds =       3.57 minutes
	system time =       4.39 seconds =       0.07 minutes
	total time  =        139 seconds =       2.32 minutes

*** tstart() called on computer03
*** at Fri Aug 11 20:20:26 2017


         ------------------------------------------------------------
                                   SCF GRAD                          
                          Rob Parrish, Justin Turney,                
                       Andy Simmonett, and Alex Sokolov              
         ------------------------------------------------------------

  ==> Geometry <==

    Molecular point group: c1
    Full point group: C1

    Geometry (in Angstrom), charge = 1, multiplicity = 1:

       Center              X                  Y                   Z               Mass       
    ------------   -----------------  -----------------  -----------------  -----------------
           C         -0.003824165666    -0.010695821183    -0.186452407740    12.000000000000
           C          0.956697973272    -0.760791117067     0.508347572213    12.000000000000
           C          0.951647470560    -0.749606614169     1.901826533778    12.000000000000
           C          0.001496171128     0.005650539854     2.594424676308    12.000000000000
           C         -0.948412094788     0.756454454984     1.896705522233    12.000000000000
           C         -0.955886314491     0.754984602317     0.503160102010    12.000000000000
           C          0.003572238616    -0.006337661189    -1.665432151511    12.000000000000
           H          1.694162302788    -1.349487154901    -0.033335661346     1.007825032070
           H          1.686941763053    -1.334786391580     2.445074785862     1.007825032070
           H          0.002818639248     0.011069005322     3.680065923050     1.007825032070
           H         -1.680185821354     1.349954484558     2.436119319999     1.007825032070
           H         -1.690499102599     1.344184873979    -0.042117826241     1.007825032070
           N         -0.700959105388    -0.916531880745    -2.322330526592    14.003074004780
           N          0.696704316577     0.922031813251    -2.309760819525    14.003074004780
           H          0.709754901334     1.002609626306    -3.322979696012     1.007825032070
           H          1.278446865043     1.569341098545    -1.779650726842     1.007825032070
           H         -1.286739024238    -1.565457172032    -1.799531369024     1.007825032070
           H         -0.718585345401    -0.980710503465    -3.337362105798     1.007825032070

  Nuclear repulsion =  415.954580626370614

  ==> Basis Set <==

  Basis Set: 6-31G*
    Blend: 6-31G*
    Number of shells: 72
    Number of basis function: 153
    Number of Cartesian functions: 153
    Spherical Harmonics?: false
    Max angular momentum: 2

  ==> DFJKGrad: Density-Fitted SCF Gradients <==

    Gradient:                    1
    J tasked:                  Yes
    K tasked:                  Yes
    wK tasked:                  No
    OpenMP threads:              8
    Integrals threads:           8
    Memory (MB):              1430
    Schwarz Cutoff:          0E+00
    Fitting Condition:       1E-12

   => Auxiliary Basis Set <=

  Basis Set: (6-31G* AUX)
    Blend: CC-PVDZ-JKFIT
    Number of shells: 297
    Number of basis function: 954
    Number of Cartesian functions: 954
    Spherical Harmonics?: false
    Max angular momentum: 3

  ==> DFT Potential <==

   => B3LYP Composite Functional <= 

    B3LYP Hybrid-GGA Exchange-Correlation Functional (VWN1-RPA)

    P.J. Stephens et. al., J. Phys. Chem., 98, 11623-11627, 1994

    Points   =           5000
    Deriv    =              1
    GGA      =           TRUE
    Meta     =          FALSE

    X_LRC        =          FALSE
    X_Hybrid     =           TRUE
    X_Alpha      =   2.000000E-01
    X_Omega      =   0.000000E+00
    C_LRC        =          FALSE
    C_Hybrid     =          FALSE
    C_Alpha      =   0.000000E+00
    C_Omega      =   0.000000E+00

   => Exchange Functionals <=

    0.8000    B3_X
    0.2000      HF 

   => Correlation Functionals <=

    0.1900 VWN3RPA_C
    0.8100   LYP_C

   => Molecular Quadrature <=

    Radial Scheme    =       TREUTLER
    Pruning Scheme   =           FLAT
    Nuclear Scheme   =       TREUTLER

    BS radius alpha  =              1
    Pruning alpha    =              1
    Radial Points    =             75
    Spherical Points =            302
    Total Points     =         397376
    Total Blocks     =            366
    Max Points       =           4993
    Max Functions    =            151


  -Total Gradient:
     Atom            X                  Y                   Z
    ------   -----------------  -----------------  -----------------
       1       -0.001566088621    -0.000644211252    -0.005026912618
       2       -0.000219203949     0.001694180067     0.001939969054
       3        0.000369037488     0.000189364883    -0.000773304062
       4       -0.000092784806    -0.000028693726     0.000436784095
       5       -0.000315889036    -0.000197753266    -0.000731053169
       6        0.000965684271    -0.001102831473     0.002059776005
       7        0.002033733487    -0.001571641782     0.005498088819
       8        0.000735248366    -0.000601939773    -0.000526163555
       9       -0.000136873704    -0.000296673457     0.000064088508
      10        0.000010109839     0.000020990487     0.000064642553
      11        0.000047623604     0.000372887420     0.000170949281
      12       -0.000740016892     0.000784446623    -0.000497928952
      13        0.002081212477     0.001766035112    -0.001925763224
      14       -0.003146758796    -0.001031317924    -0.002742492611
      15       -0.001029435777     0.000012754401    -0.001358785810
      16        0.004040452740     0.002963112117     0.002694032835
      17       -0.004009622747    -0.002414092916     0.002649959206
      18        0.000971332602     0.000081967020    -0.001992179018


*** tstop() called on computer03 at Fri Aug 11 20:20:39 2017
Module time:
	user time   =      24.30 seconds =       0.40 minutes
	system time =       0.63 seconds =       0.01 minutes
	total time  =         13 seconds =       0.22 minutes
Total time:
	user time   =     238.86 seconds =       3.98 minutes
	system time =       5.03 seconds =       0.08 minutes
	total time  =        152 seconds =       2.53 minutes

			-----------------------------------------
			 OPTKING 2.0: for geometry optimizations 
			  - R.A. King,  Bethel University        
			-----------------------------------------
	At level 1: Red. Int., RFO, no backsteps, dynamic trust

	Previous internal coordinate definitions found.
	---Fragment 1 Geometry and Gradient---
	 C          -0.0072266258       -0.0202121728       -0.3523439874
	 C           1.8078971614       -1.4376868556        0.9606376918
	 C           1.7983530944       -1.4165512082        3.5939313011
	 C           0.0028273537        0.0106779728        4.9027521106
	 C          -1.7922391203        1.4294917519        3.5842539918
	 C          -1.8063633486        1.4267141329        0.9508347938
	 C           0.0067505527       -0.0119764440       -3.1472106593
	 H           3.2015027769       -2.5501611426       -0.0629952704
	 H           3.1878579343       -2.5223807260        4.6205217197
	 H           0.0053264562        0.0209173886        6.9543167455
	 H          -3.1750910547        2.5510442677        4.6035983418
	 H          -3.1945803318        2.5401412838       -0.0795911569
	 N          -1.3246207395       -1.7319942467       -4.3885686853
	 N           1.3165803539        1.7423876129       -4.3648153814
	 H           1.3412423850        1.8946576119       -6.2795215706
	 H           2.4159144504        2.9656248853       -3.3630524859
	 H          -2.4315843603       -2.9582853279       -3.4006214550
	 H          -1.3579295059       -1.8532742672       -6.3067003862
	            -0.0015660886       -0.0006442113       -0.0050269126
	            -0.0002192039        0.0016941801        0.0019399691
	             0.0003690375        0.0001893649       -0.0007733041
	            -0.0000927848       -0.0000286937        0.0004367841
	            -0.0003158890       -0.0001977533       -0.0007310532
	             0.0009656843       -0.0011028315        0.0020597760
	             0.0020337335       -0.0015716418        0.0054980888
	             0.0007352484       -0.0006019398       -0.0005261636
	            -0.0001368737       -0.0002966735        0.0000640885
	             0.0000101098        0.0000209905        0.0000646426
	             0.0000476236        0.0003728874        0.0001709493
	            -0.0007400169        0.0007844466       -0.0004979290
	             0.0020812125        0.0017660351       -0.0019257632
	            -0.0031467588       -0.0010313179       -0.0027424926
	            -0.0010294358        0.0000127544       -0.0013587858
	             0.0040404527        0.0029631121        0.0026940328
	            -0.0040096227       -0.0024140929        0.0026499592
	             0.0009713326        0.0000819670       -0.0019921790

	---Fragment 1 Intrafragment Coordinates---
	 - Coordinate -           - BOHR/RAD -       - ANG/DEG -
	 R(1,2)           =         2.651005	       1.402852
	 R(1,6)           =         2.651182	       1.402945
	 R(1,7)           =         2.794914	       1.479005
	 R(2,3)           =         2.633396	       1.393533
	 R(2,8)           =         2.056103	       1.088043
	 R(3,4)           =         2.640816	       1.397459
	 R(3,9)           =         2.051212	       1.085455
	 R(4,5)           =         2.640783	       1.397442
	 R(4,10)          =         2.051592	       1.085656
	 R(5,6)           =         2.633459	       1.393566
	 R(5,11)          =         2.051639	       1.085681
	 R(6,12)          =         2.056367	       1.088182
	 R(7,13)          =         2.504392	       1.325267
	 R(7,14)          =         2.505196	       1.325693
	 R(13,17)         =         1.924889	       1.018607
	 R(13,18)         =         1.922251	       1.017211
	 R(14,15)         =         1.920910	       1.016502
	 R(14,16)         =         1.925714	       1.019044
	 B(1,2,3)         =         2.081149	     119.241036
	 B(1,2,8)         =         2.102270	     120.451209
	 B(1,6,5)         =         2.081138	     119.240399
	 B(1,6,12)        =         2.102869	     120.485505
	 B(1,7,13)        =         2.084013	     119.405124
	 B(1,7,14)        =         2.083691	     119.386714
	 B(2,1,6)         =         2.109484	     120.864542
	 B(2,1,7)         =         2.086814	     119.565617
	 B(2,3,4)         =         2.097163	     120.158574
	 B(2,3,9)         =         2.087111	     119.582649
	 B(3,2,8)         =         2.099750	     120.306840
	 B(3,4,5)         =         2.100279	     120.337095
	 B(3,4,10)        =         2.091482	     119.833082
	 B(4,3,9)         =         2.098900	     120.258099
	 B(4,5,6)         =         2.097116	     120.155907
	 B(4,5,11)        =         2.098794	     120.252059
	 B(5,4,10)        =         2.091422	     119.829654
	 B(5,6,12)        =         2.099174	     120.273796
	 B(6,1,7)         =         2.086703	     119.559270
	 B(6,5,11)        =         2.087248	     119.590524
	 B(7,13,17)       =         2.081576	     119.265538
	 B(7,13,18)       =         2.149757	     123.171996
	 B(7,14,15)       =         2.149198	     123.139989
	 B(7,14,16)       =         2.083431	     119.371788
	 B(13,7,14)       =         2.115307	     121.198135
	 B(15,14,16)      =         2.049739	     117.441392
	 B(17,13,18)      =         2.051034	     117.515569
	 D(1,2,3,4)       =        -0.003978	      -0.227917
	 D(1,2,3,9)       =         3.132401	     179.473329
	 D(1,6,5,4)       =         0.003705	       0.212273
	 D(1,6,5,11)      =         3.137513	     179.766270
	 D(1,7,13,17)     =         0.071892	       4.119126
	 D(1,7,13,18)     =        -3.114290	    -178.435660
	 D(1,7,14,15)     =        -3.094652	    -177.310487
	 D(1,7,14,16)     =         0.091529	       5.244226
	 D(2,1,6,5)       =        -0.009695	      -0.555476
	 D(2,1,6,12)      =         3.128433	     179.246027
	*D(2,1,7,13)      =         1.570796	      89.999988
	 D(2,1,7,14)      =        -1.590656	     -91.137892
	 D(2,3,4,5)       =        -0.001893	      -0.108477
	 D(2,3,4,10)      =        -3.140873	    -179.958783
	 D(3,2,1,6)       =         0.009831	       0.563285
	 D(3,2,1,7)       =         3.130691	     179.375363
	 D(3,4,5,6)       =         0.002032	       0.116403
	 D(3,4,5,11)      =        -3.131725	    -179.434621
	 D(4,3,2,8)       =        -3.139523	    -179.881442
	 D(4,5,6,12)      =        -3.134431	    -179.589660
	 D(5,4,3,9)       =        -3.138236	    -179.807689
	 D(5,6,1,7)       =        -3.130556	    -179.367629
	 D(6,1,2,8)       =        -3.137818	    -179.783702
	 D(6,1,7,13)      =        -1.591256	     -91.172277
	 D(6,1,7,14)      =         1.530476	      87.689843
	 D(6,5,4,10)      =         3.141012	     179.966713
	 D(7,1,2,8)       =        -0.016958	      -0.971624
	 D(7,1,6,12)      =         0.007573	       0.433874
	 D(8,2,3,9)       =        -0.003145	      -0.180197
	 D(9,3,4,10)      =         0.005969	       0.342006
	 D(10,4,5,11)     =         0.007255	       0.415689
	 D(11,5,6,12)     =        -0.000622	      -0.035662
	 D(13,7,14,15)    =         0.026714	       1.530627
	 D(13,7,14,16)    =        -3.070290	    -175.914660
	 D(14,7,13,17)    =        -3.049470	    -174.721779
	 D(14,7,13,18)    =         0.047533	       2.723436

	Current energy   :      -381.4636457201

	Energy change for the previous step:
		Projected    :        -0.0026293662
		Actual       :        -0.0017042966

	Performing BFGS update.
	Previous computed or guess Hessian on step 1.
	Steps to be used in Hessian update: 1
	Taking RFO optimization step.
	Going to follow RFO solution 1.
	Using RFO vector 1.
	Norm of target step-size    0.16357
	Projected energy change by RFO approximation:         0.0002848398

	Back-transformation to cartesian coordinates...
	Could not converge backtransformation.
	Using first guess instead.

	Back-transformation to cartesian coordinates to adjust frozen coordinates...
	Successfully converged to displaced geometry.

	--- Internal Coordinate Step in ANG or DEG, aJ/ANG or AJ/DEG ---
	 ---------------------------------------------------------------------------
	   Coordinate                Previous        Force       Change         New 
	   ----------                --------       ------       ------       ------
	    1 R(1,2)          =      1.402852    -0.004042    -0.001214     1.401638
	    2 R(1,6)          =      1.402945    -0.005035    -0.001385     1.401560
	    3 R(1,7)          =      1.479005     0.023210     0.006429     1.485434
	    4 R(2,3)          =      1.393533     0.003462     0.000845     1.394378
	    5 R(2,8)          =      1.088043    -0.008948    -0.001496     1.086546
	    6 R(3,4)          =      1.397459    -0.001085    -0.000250     1.397210
	    7 R(3,9)          =      1.085455    -0.000817    -0.000065     1.085389
	    8 R(4,5)          =      1.397442    -0.000328    -0.000128     1.397314
	    9 R(4,10)         =      1.085656    -0.000532    -0.000113     1.085543
	   10 R(5,6)          =      1.393566     0.002903     0.000746     1.394312
	   11 R(5,11)         =      1.085681    -0.002114    -0.000273     1.085407
	   12 R(6,12)         =      1.088182    -0.009672    -0.001624     1.086559
	   13 R(7,13)         =      1.325267    -0.012564    -0.002166     1.323101
	   14 R(7,14)         =      1.325693    -0.016284    -0.002323     1.323370
	   15 R(13,17)        =      1.018607    -0.042867    -0.003650     1.014957
	   16 R(13,18)        =      1.017211    -0.016200    -0.001453     1.015758
	   17 R(14,15)        =      1.016502    -0.011058    -0.000268     1.016234
	   18 R(14,16)        =      1.019044    -0.046061    -0.004775     1.014269
	   19 B(1,2,3)        =    119.241036    -0.000044    -0.220375   119.020661
	   20 B(1,2,8)        =    120.451209     0.000021     0.068851   120.520059
	   21 B(1,6,5)        =    119.240399    -0.000048    -0.240624   118.999775
	   22 B(1,6,12)       =    120.485505     0.000016     0.051215   120.536721
	   23 B(1,7,13)       =    119.405124    -0.000071    -0.313002   119.092121
	   24 B(1,7,14)       =    119.386714    -0.000080    -0.361622   119.025092
	   25 B(2,1,6)        =    120.864542     0.000085     0.393791   121.258333
	   26 B(2,1,7)        =    119.565617    -0.000024    -0.127441   119.438176
	   27 B(2,3,4)        =    120.158574    -0.000011    -0.026184   120.132390
	   28 B(2,3,9)        =    119.582649     0.000004    -0.004322   119.578327
	   29 B(3,2,8)        =    120.306840     0.000023     0.152158   120.458998
	   30 B(3,4,5)        =    120.337095     0.000023     0.094548   120.431643
	   31 B(3,4,10)       =    119.833082    -0.000012    -0.048684   119.784398
	   32 B(4,3,9)        =    120.258099     0.000007     0.031176   120.289275
	   33 B(4,5,6)        =    120.155907    -0.000004    -0.000773   120.155134
	   34 B(4,5,11)       =    120.252059     0.000006     0.034179   120.286238
	   35 B(5,4,10)       =    119.829654    -0.000011    -0.045695   119.783958
	   36 B(5,6,12)       =    120.273796     0.000032     0.189683   120.463480
	   37 B(6,1,7)        =    119.559270    -0.000061    -0.265995   119.293275
	   38 B(6,5,11)       =    119.590524    -0.000002    -0.031970   119.558553
	   39 B(7,13,17)      =    119.265538    -0.000030    -0.315160   118.950378
	   40 B(7,13,18)      =    123.171996     0.000074     0.447209   123.619205
	   41 B(7,14,15)      =    123.139989     0.000078     0.462436   123.602424
	   42 B(7,14,16)      =    119.371788    -0.000050    -0.416253   118.955534
	   43 B(13,7,14)      =    121.198135     0.000151     0.684598   121.882733
	   44 B(15,14,16)     =    117.441392    -0.000027    -0.016490   117.424903
	   45 B(17,13,18)     =    117.515569    -0.000042    -0.086129   117.429440
	   46 D(1,2,3,4)      =     -0.227917     0.000001     0.263099     0.035182
	   47 D(1,2,3,9)      =    179.473329     0.000003     0.595465   180.068794
	   48 D(1,6,5,4)      =      0.212273     0.000001     0.234156     0.446429
	   49 D(1,6,5,11)     =    179.766270     0.000003     0.581186   180.347457
	   50 D(1,7,13,17)    =      4.119126    -0.000018    -3.697342     0.421784
	   51 D(1,7,13,18)    =   -178.435660    -0.000007    -1.511834  -179.947494
	   52 D(1,7,14,15)    =   -177.310487    -0.000013    -2.874512  -180.184999
	   53 D(1,7,14,16)    =      5.244226    -0.000017    -3.882643     1.361583
	   54 D(2,1,6,5)      =     -0.555476    -0.000000     0.003298    -0.552178
	   55 D(2,1,6,12)     =    179.246027     0.000002     0.259278   179.505304
	   56 *D(2,1,7,13)    =     89.999988    -0.000000     0.000000    89.999988
	   57 D(2,1,7,14)     =    -91.137892     0.000005     1.055415   -90.082476
	   58 D(2,3,4,5)      =     -0.108477    -0.000000    -0.026583    -0.135060
	   59 D(2,3,4,10)     =   -179.958783    -0.000001    -0.166545  -180.125327
	   60 D(3,2,1,6)      =      0.563285    -0.000001    -0.251601     0.311684
	   61 D(3,2,1,7)      =    179.375363    -0.000001    -0.234734   179.140629
	   62 D(3,4,5,6)      =      0.116403    -0.000001    -0.226394    -0.109991
	   63 D(3,4,5,11)     =   -179.434621    -0.000003    -0.575671  -180.010293
	   64 D(4,3,2,8)      =   -179.881442    -0.000000     0.108497  -179.772946
	   65 D(4,5,6,12)     =   -179.589660    -0.000001    -0.021351  -179.611010
	   66 D(5,4,3,9)      =   -179.807689    -0.000002    -0.361225  -180.168914
	   67 D(5,6,1,7)      =   -179.367629    -0.000000    -0.015160  -179.382789
	   68 D(6,1,2,8)      =   -179.783702     0.000001    -0.096608  -179.880309
	   69 D(6,1,7,13)     =    -91.172277     0.000000     0.024430   -91.147847
	   70 D(6,1,7,14)     =     87.689843     0.000005     1.079845    88.769688
	   71 D(6,5,4,10)     =    179.966713    -0.000001    -0.086437   179.880276
	   72 D(7,1,2,8)      =     -0.971624     0.000000    -0.079740    -1.051364
	   73 D(7,1,6,12)     =      0.433874     0.000002     0.240820     0.674694
	   74 D(8,2,3,9)      =     -0.180197     0.000001     0.440863     0.260667
	   75 D(9,3,4,10)     =      0.342006    -0.000003    -0.501186    -0.159181
	   76 D(10,4,5,11)    =      0.415689    -0.000003    -0.435715    -0.020026
	   77 D(11,5,6,12)    =     -0.035662     0.000001     0.325679     0.290017
	   78 D(13,7,14,15)   =      1.530627    -0.000009    -1.800490    -0.269863
	   79 D(13,7,14,16)   =   -175.914660    -0.000013    -2.808621  -178.723281
	   80 D(14,7,13,17)   =   -174.721779    -0.000022    -4.771518  -179.493297
	   81 D(14,7,13,18)   =      2.723436    -0.000011    -2.586010     0.137425
	 ---------------------------------------------------------------------------
	Successfully symmetrized geometry.

  ==> Convergence Check <==

  Measures of convergence in internal coordinates in au.
  Criteria marked as inactive (o), active & met (*), and active & unmet ( ).
  ---------------------------------------------------------------------------------------------
   Step     Total Energy     Delta E     MAX Force     RMS Force      MAX Disp      RMS Disp   
  ---------------------------------------------------------------------------------------------
    Convergence Criteria    1.00e-06 *    3.00e-04 *             o    1.20e-03 *             o
  ---------------------------------------------------------------------------------------------
      2    -381.46364572   -1.70e-03      5.59e-03      1.11e-03 o    8.33e-02      1.81e-02 o  ~
  ---------------------------------------------------------------------------------------------

	Writing optimization data to binary file.
	Structure for next step:
	Cartesian Geometry (in Angstrom)
	    C    -0.0080732689  -0.0081999346  -0.1852635989
	    C     0.9524235571  -0.7625498652   0.5024793119
	    C     0.9517601585  -0.7490851557   1.8967916725
	    C     0.0036707348   0.0073109367   2.5904679029
	    C    -0.9486826238   0.7578186815   1.8960272327
	    C    -0.9585305890   0.7592706843   0.5017509147
	    C    -0.0038612313  -0.0005691186  -1.6706720063
	    H     1.6849531629  -1.3517843485  -0.0423016424
	    H     1.6921882221  -1.3290454115   2.4385318111
	    H     0.0070459263   0.0120876613   3.6759947185
	    H    -1.6842185724   1.3444431388   2.4372923174
	    H    -1.6928444268   1.3460158711  -0.0433388401
	    N    -0.7131746876  -0.9088482370  -2.3206724108
	    N     0.7083900917   0.9161147043  -2.3060435599
	    H     0.7632117328   0.9836571365  -3.3185474848
	    H     1.2514061873   1.5791087040  -1.7635361642
	    H    -1.2495071143  -1.5865328751  -1.7884796486
	    H    -0.7590055916  -0.9673363895  -3.3337093810
			--------------------------
			 OPTKING Finished Execution 
			--------------------------

    Structure for next step:
    Molecular point group: c1
    Full point group: C1

    Geometry (in Angstrom), charge = 1, multiplicity = 1:

    C           -0.006510744005    -0.009691227739    -0.183934159765
    C            0.953986081907    -0.764041158270     0.503808751081
    C            0.953322683308    -0.750576448786     1.898121111720
    C            0.005233259664     0.005819643552     2.591797342109
    C           -0.947120098958     0.756327388369     1.897356671924
    C           -0.956968064111     0.757779391227     0.503080353861
    C           -0.002298706444    -0.002060411713    -1.669342567100
    H            1.686515687786    -1.353275641585    -0.040972203240
    H            1.693750746977    -1.330536704630     2.439861250276
    H            0.008608451136     0.010596368200     3.677324157676
    H           -1.682656047534     1.342951845710     2.438621756554
    H           -1.691281901979     1.344524577955    -0.042009400946
    N           -0.711612162791    -0.910339530082    -2.319342971619
    N            0.709952616532     0.914623411198    -2.304714120758
    H            0.764774257638     0.982165843415    -3.317218045605
    H            1.252968712171     1.577617410950    -1.762206724996
    H           -1.247944589393    -1.588024168163    -1.787150209382
    H           -0.757443066789    -0.968827682612    -3.332379941813

gradient() will perform analytic gradient computation.

*** tstart() called on computer03
*** at Fri Aug 11 20:20:39 2017

   => Loading Basis Set <=

    Name: 6-31G*
    Role: ORBITAL
    Keyword: BASIS
    atoms 1-7         entry C          line   102 file /home/raimis/opt/miniconda3/envs/htmd/share/psi4/basis/6-31gs.gbs 
    atoms 8-12, 15-18 entry H          line    35 file /home/raimis/opt/miniconda3/envs/htmd/share/psi4/basis/6-31gs.gbs 
    atoms 13-14       entry N          line   119 file /home/raimis/opt/miniconda3/envs/htmd/share/psi4/basis/6-31gs.gbs 


         ---------------------------------------------------------
                                   SCF
            by Justin Turney, Rob Parrish, and Andy Simmonett
                              RKS Reference
                        8 Threads,   1907 MiB Core
         ---------------------------------------------------------

  ==> Geometry <==

    Molecular point group: c1
    Full point group: C1

    Geometry (in Angstrom), charge = 1, multiplicity = 1:

       Center              X                  Y                   Z               Mass       
    ------------   -----------------  -----------------  -----------------  -----------------
           C         -0.006510744005    -0.009691227739    -0.183934159765    12.000000000000
           C          0.953986081907    -0.764041158270     0.503808751081    12.000000000000
           C          0.953322683308    -0.750576448786     1.898121111720    12.000000000000
           C          0.005233259664     0.005819643552     2.591797342109    12.000000000000
           C         -0.947120098958     0.756327388369     1.897356671924    12.000000000000
           C         -0.956968064111     0.757779391227     0.503080353861    12.000000000000
           C         -0.002298706444    -0.002060411713    -1.669342567100    12.000000000000
[...]
	            -0.0000373061       -0.0000115664       -0.0000191636
	             0.0000100172        0.0000123363        0.0000071980
	             0.0000113172        0.0000066033       -0.0000083829
	            -0.0000101906       -0.0000081960        0.0000003077
	             0.0000067239        0.0000283971       -0.0000194180
	            -0.0000163360       -0.0000205251       -0.0000422197
	             0.0000079550        0.0000075024        0.0000038372
	            -0.0000039004        0.0000000026        0.0000013815
	            -0.0000030176       -0.0000037414        0.0000024614
	             0.0000015781       -0.0000008437        0.0000032009
	            -0.0000065290       -0.0000095775        0.0000015106
	            -0.0000145576        0.0000248851        0.0000356517
	            -0.0000122050        0.0000238753        0.0000052627
	             0.0000084450       -0.0000043592        0.0000216207
	            -0.0000016962       -0.0000164154       -0.0000158374
	             0.0000178926        0.0000087896       -0.0000260069
	             0.0000038725       -0.0000069125        0.0000083500

	---Fragment 1 Intrafragment Coordinates---
	 - Coordinate -           - BOHR/RAD -       - ANG/DEG -
	 R(1,2)           =         2.649022	       1.401802
	 R(1,6)           =         2.649134	       1.401861
	 R(1,7)           =         2.807077	       1.485441
	 R(2,3)           =         2.634994	       1.394379
	 R(2,8)           =         2.052885	       1.086340
	 R(3,4)           =         2.640423	       1.397252
	 R(3,9)           =         2.050943	       1.085312
	 R(4,5)           =         2.640456	       1.397269
	 R(4,10)          =         2.051492	       1.085603
	 R(5,6)           =         2.634964	       1.394363
	 R(5,11)          =         2.050949	       1.085315
	 R(6,12)          =         2.052879	       1.086337
	 R(7,13)          =         2.500462	       1.323187
	 R(7,14)          =         2.500525	       1.323221
	 R(13,17)         =         1.913593	       1.012630
	 R(13,18)         =         1.918105	       1.015018
	 R(14,15)         =         1.918075	       1.015002
	 R(14,16)         =         1.913610	       1.012639
	 B(1,2,3)         =         2.077102	     119.009173
	 B(1,2,8)         =         2.104240	     120.564083
	 B(1,6,5)         =         2.077097	     119.008906
	 B(1,6,12)        =         2.104199	     120.561711
	 B(1,7,13)        =         2.078595	     119.094694
	 B(1,7,14)        =         2.078410	     119.084108
	 B(2,1,6)         =         2.116379	     121.259600
	 B(2,1,7)         =         2.083603	     119.381664
	 B(2,3,4)         =         2.096682	     120.131048
	 B(2,3,9)         =         2.087546	     119.607549
	 B(3,2,8)         =         2.101843	     120.426740
	 B(3,4,5)         =         2.102441	     120.460973
	 B(3,4,10)        =         2.090375	     119.769638
	 B(4,3,9)         =         2.098957	     120.261402
	 B(4,5,6)         =         2.096669	     120.130298
	 B(4,5,11)        =         2.098946	     120.260740
	 B(5,4,10)        =         2.090370	     119.769389
	 B(5,6,12)        =         2.101889	     120.429380
	 B(6,1,7)         =         2.083203	     119.358735
	 B(6,5,11)        =         2.087570	     119.608962
	 B(7,13,17)       =         2.078430	     119.085258
	 B(7,13,18)       =         2.157501	     123.615688
	 B(7,14,15)       =         2.157534	     123.617620
	 B(7,14,16)       =         2.078348	     119.080575
	 B(13,7,14)       =         2.126181	     121.821195
	 B(15,14,16)      =         2.047302	     117.301776
	 B(17,13,18)      =         2.047254	     117.299029
	 D(1,2,3,4)       =         0.000216	       0.012393
	 D(1,2,3,9)       =        -3.141509	    -179.995199
	 D(1,6,5,4)       =         0.000238	       0.013647
	 D(1,6,5,11)      =        -3.141459	    -179.992357
	 D(1,7,13,17)     =        -0.000632	      -0.036200
	 D(1,7,13,18)     =        -3.141200	    -179.977482
	 D(1,7,14,15)     =         3.141211	     179.978155
	 D(1,7,14,16)     =         0.000719	       0.041181
	 D(2,1,6,5)       =        -0.000065	      -0.003699
	 D(2,1,6,12)      =        -3.141305	    -179.983526
	*D(2,1,7,13)      =         1.570796	      89.999988
	 D(2,1,7,14)      =        -1.571089	     -90.016773
	 D(2,3,4,5)       =        -0.000045	      -0.002591
	 D(2,3,4,10)      =         3.141401	     179.989014
	 D(3,2,1,6)       =        -0.000162	      -0.009310
	 D(3,2,1,7)       =         3.141179	     179.976293
	 D(3,4,5,6)       =        -0.000186	      -0.010660
	 D(3,4,5,11)      =         3.141512	     179.995384
	 D(4,3,2,8)       =         3.141388	     179.988275
	 D(4,5,6,12)      =         3.141479	     179.993502
	 D(5,4,3,9)       =        -3.141504	    -179.994949
	 D(5,6,1,7)       =        -3.141406	    -179.989306
	 D(6,1,2,8)       =        -3.141334	    -179.985159
	 D(6,1,7,13)      =        -1.571043	     -90.014132
	 D(6,1,7,14)      =         1.570257	      89.969108
	 D(6,5,4,10)      =         3.141553	     179.997736
	 D(7,1,2,8)       =         0.000000	       0.000000
	 D(7,1,6,12)      =         0.000539	       0.030867
	 D(8,2,3,9)       =        -0.000337	      -0.019316
	 D(9,3,4,10)      =        -0.000058	      -0.003345
	 D(10,4,5,11)     =         0.000066	       0.003780
	 D(11,5,6,12)     =        -0.000218	      -0.012503
	 D(13,7,14,15)    =        -0.000682	      -0.039082
	 D(13,7,14,16)    =        -3.141175	    -179.976055
	 D(14,7,13,17)    =         3.141262	     179.981038
	 D(14,7,13,18)    =         0.000694	       0.039757

	Current energy   :      -381.4640107283

	Energy change for the previous step:
		Projected    :        -0.0000029746
		Actual       :        -0.0000005134
	Energy ratio indicates iffy step: Trust radius decreased to 3.125e-02.


	Performing BFGS update.
	Previous computed or guess Hessian on step 1.
	Steps to be used in Hessian update: 5 4
	Taking RFO optimization step.
	Going to follow RFO solution 1.
	Using RFO vector 1.
	Norm of target step-size    0.00191
	Projected energy change by RFO approximation:         0.0000000515

	Back-transformation to cartesian coordinates...
	Could not converge backtransformation.
	Using first guess instead.

	Back-transformation to cartesian coordinates to adjust frozen coordinates...
	Successfully converged to displaced geometry.

	--- Internal Coordinate Step in ANG or DEG, aJ/ANG or AJ/DEG ---
	 ---------------------------------------------------------------------------
	   Coordinate                Previous        Force       Change         New 
	   ----------                --------       ------       ------       ------
	    1 R(1,2)          =      1.401802     0.000191     0.000032     1.401834
	    2 R(1,6)          =      1.401861    -0.000009    -0.000005     1.401857
	    3 R(1,7)          =      1.485441    -0.000125    -0.000038     1.485403
	    4 R(2,3)          =      1.394379    -0.000033    -0.000007     1.394372
	    5 R(2,8)          =      1.086340     0.000003     0.000000     1.086340
	    6 R(3,4)          =      1.397252     0.000041     0.000007     1.397258
	    7 R(3,9)          =      1.085312     0.000017     0.000004     1.085316
	    8 R(4,5)          =      1.397269     0.000001     0.000001     1.397270
	    9 R(4,10)         =      1.085603    -0.000018    -0.000004     1.085599
	   10 R(5,6)          =      1.394363    -0.000003    -0.000004     1.394359
	   11 R(5,11)         =      1.085315     0.000001     0.000000     1.085316
	   12 R(6,12)         =      1.086337     0.000011     0.000003     1.086339
	   13 R(7,13)         =      1.323187     0.000252     0.000031     1.323218
	   14 R(7,14)         =      1.323221     0.000047     0.000004     1.323225
	   15 R(13,17)        =      1.012630     0.000240     0.000046     1.012676
	   16 R(13,18)        =      1.015018     0.000064     0.000012     1.015030
	   17 R(14,15)        =      1.015002     0.000174     0.000032     1.015034
	   18 R(14,16)        =      1.012639     0.000167     0.000029     1.012668
	   19 B(1,2,3)        =    119.009173     0.000000     0.001516   119.010689
	   20 B(1,2,8)        =    120.564083    -0.000000    -0.002227   120.561856
	   21 B(1,6,5)        =    119.008906     0.000001     0.001924   119.010830
	   22 B(1,6,12)       =    120.561711    -0.000000    -0.001186   120.560525
	   23 B(1,7,13)       =    119.094694    -0.000001    -0.004493   119.090201
	   24 B(1,7,14)       =    119.084108     0.000001     0.005397   119.089505
	   25 B(2,1,6)        =    121.259600    -0.000001    -0.003203   121.256397
	   26 B(2,1,7)        =    119.381664    -0.000002    -0.006519   119.375145
	   27 B(2,3,4)        =    120.131048     0.000000     0.000275   120.131323
	   28 B(2,3,9)        =    119.607549    -0.000000    -0.001090   119.606460
	   29 B(3,2,8)        =    120.426740     0.000000     0.000715   120.427455
	   30 B(3,4,5)        =    120.460973    -0.000000    -0.001208   120.459765
	   31 B(3,4,10)       =    119.769638     0.000000     0.000502   119.770139
	   32 B(4,3,9)        =    120.261402     0.000000     0.000815   120.262217
	   33 B(4,5,6)        =    120.130298     0.000000     0.000698   120.130996
	   34 B(4,5,11)       =    120.260740     0.000000     0.001020   120.261760
	   35 B(5,4,10)       =    119.769389     0.000000     0.000707   119.770096
	   36 B(5,6,12)       =    120.429380    -0.000000    -0.000735   120.428645
	   37 B(6,1,7)        =    119.358735     0.000003     0.009724   119.368458
	   38 B(6,5,11)       =    119.608962    -0.000000    -0.001718   119.607243
	   39 B(7,13,17)      =    119.085258    -0.000001    -0.004909   119.080349
	   40 B(7,13,18)      =    123.615688     0.000000     0.001031   123.616718
	   41 B(7,14,15)      =    123.617620    -0.000000    -0.000110   123.617511
	   42 B(7,14,16)      =    119.080575    -0.000000    -0.001589   119.078986
	   43 B(13,7,14)      =    121.821195    -0.000000    -0.000902   121.820293
	   44 B(15,14,16)     =    117.301776     0.000000     0.001727   117.303503
	   45 B(17,13,18)     =    117.299029     0.000001     0.003899   117.302928
	   46 D(1,2,3,4)      =      0.012393    -0.000000    -0.018907    -0.006514
	   47 D(1,2,3,9)      =   -179.995199    -0.000000    -0.006322  -180.001521
	   48 D(1,6,5,4)      =      0.013647    -0.000000    -0.019232    -0.005585
	   49 D(1,6,5,11)     =   -179.992357    -0.000000    -0.007643  -180.000000
	   50 D(1,7,13,17)    =     -0.036200     0.000000     0.020032    -0.016168
	   51 D(1,7,13,18)    =   -179.977482    -0.000000    -0.014240  -179.991721
	   52 D(1,7,14,15)    =    179.978155     0.000000     0.022716   180.000871
	   53 D(1,7,14,16)    =      0.041181    -0.000000    -0.039459     0.001722
	   54 D(2,1,6,5)      =     -0.003699     0.000000     0.003699     0.000000
	   55 D(2,1,6,12)     =   -179.983526    -0.000000    -0.016474  -180.000000
	   56 *D(2,1,7,13)    =     89.999988    -0.000000    -0.000000    89.999988
	   57 D(2,1,7,14)     =    -90.016773    -0.000000     0.011291   -90.005482
	   58 D(2,3,4,5)      =     -0.002591     0.000000     0.003873     0.001282
	   59 D(2,3,4,10)     =    179.989014     0.000000     0.015818   180.004831
	   60 D(3,2,1,6)      =     -0.009310     0.000000     0.015098     0.005787
	   61 D(3,2,1,7)      =    179.976293     0.000000     0.031003   180.007297
	   62 D(3,4,5,6)      =     -0.010660     0.000000     0.015533     0.004874
	   63 D(3,4,5,11)     =    179.995384     0.000000     0.004616   180.000000
	   64 D(4,3,2,8)      =    179.988275     0.000000     0.009270   179.997545
	   65 D(4,5,6,12)     =    179.993502     0.000000     0.001832   179.995333
	   66 D(5,4,3,9)      =   -179.994949    -0.000000    -0.008795  -180.003744
	   67 D(5,6,1,7)      =   -179.989306    -0.000000    -0.011946  -180.001252
	   68 D(6,1,2,8)      =   -179.985159    -0.000000    -0.013119  -179.998277
	   69 D(6,1,7,13)     =    -90.014132     0.000000     0.015600   -89.998531
	   70 D(6,1,7,14)     =     89.969108     0.000000     0.026891    89.995999
	   71 D(6,5,4,10)     =    179.997736     0.000000     0.003589   180.001324
	   72 D(7,1,2,8)      =      0.000000    -0.000000     0.003232     0.003232
	   73 D(7,1,6,12)     =      0.030867    -0.000000    -0.033038    -0.002172
	   74 D(8,2,3,9)      =     -0.019316     0.000000     0.021855     0.002538
	   75 D(9,3,4,10)     =     -0.003345     0.000000     0.003345     0.000000
	   76 D(10,4,5,11)    =      0.003780    -0.000000    -0.007816    -0.004036
	   77 D(11,5,6,12)    =     -0.012503     0.000000     0.012503     0.000000
	   78 D(13,7,14,15)   =     -0.039082     0.000000     0.034328    -0.004754
	   79 D(13,7,14,16)   =   -179.976055    -0.000000    -0.027848  -180.003903
	   80 D(14,7,13,17)   =    179.981038     0.000000     0.008419   179.989457
	   81 D(14,7,13,18)   =      0.039757    -0.000000    -0.025853     0.013904
	 ---------------------------------------------------------------------------
	Successfully symmetrized geometry.

  ==> Convergence Check <==

  Measures of convergence in internal coordinates in au.
  Criteria marked as inactive (o), active & met (*), and active & unmet ( ).
  ---------------------------------------------------------------------------------------------
   Step     Total Energy     Delta E     MAX Force     RMS Force      MAX Disp      RMS Disp   
  ---------------------------------------------------------------------------------------------
    Convergence Criteria    1.00e-06 *    3.00e-04 *             o    1.20e-03 *             o
  ---------------------------------------------------------------------------------------------
      6    -381.46401073   -5.13e-07 *    3.37e-05 *    9.42e-06 o    6.89e-04 *    2.12e-04 o  ~
  ---------------------------------------------------------------------------------------------


  **** Optimization is complete! (in 6 steps) ****

  ==> Optimization Summary <==

  Measures of convergence in internal coordinates in au.
  --------------------------------------------------------------------------------------------------------------- ~
   Step         Total Energy             Delta E       MAX Force       RMS Force        MAX Disp        RMS Disp  ~
  --------------------------------------------------------------------------------------------------------------- ~
      1    -381.461941423547   -381.461941423547      0.00833017      0.00189735      0.11654220      0.03436307  ~
      2    -381.463645720142     -0.001704296595      0.00559077      0.00111080      0.08327870      0.01814291  ~
      3    -381.463982233145     -0.000336513003      0.00202140      0.00033237      0.02193080      0.00505837  ~
      4    -381.464005626268     -0.000023393123      0.00027593      0.00007402      0.01042349      0.00234796  ~
      5    -381.464010214887     -0.000004588619      0.00025032      0.00004300      0.00294060      0.00076384  ~
      6    -381.464010728253     -0.000000513366      0.00003366      0.00000942      0.00068870      0.00021199  ~
  --------------------------------------------------------------------------------------------------------------- ~

	Writing optimization data to binary file.
	Final energy is   -381.4640107282532
	Final (previous) structure:
	Cartesian Geometry (in Angstrom)
	    C     0.0000107434  -0.0003008073  -0.1838048837
	    C     0.9577135503  -0.7586527637   0.5037682412
	    C     0.9510161413  -0.7528501466   1.8981190593
	    C     0.0002193363   0.0001910313   2.5918242210
	    C    -0.9507551354   0.7529448426   1.8980158738
	    C    -0.9576661663   0.7582729298   0.5036802566
	    C    -0.0000919720  -0.0000663325  -1.6692458917
	    H     1.6948682905  -1.3422449481  -0.0404354639
	    H     1.6881473230  -1.3364381108   2.4403045529
	    H     0.0002615738   0.0003163716   3.6774272773
	    H    -1.6878521981   1.3366385675   2.4401405664
	    H    -1.6948701466   1.3416783085  -0.0406507621
	    N    -0.7178658929  -0.9064515824  -2.3127451108
	    N     0.7174196673   0.9068480470  -2.3123607614
	    H     0.7673857603   0.9697215698  -3.3241801027
	    H     1.2517950057   1.5810097976  -1.7781452325
	    H    -1.2515112566  -1.5814732101  -1.7789025873
	    H    -0.7673407080  -0.9692249835  -3.3246110616
	Saving final (previous) structure.
			--------------------------
			 OPTKING Finished Execution 
			--------------------------

    Final optimized geometry and variables:
    Molecular point group: c1
    Full point group: C1

    Geometry (in Angstrom), charge = 1, multiplicity = 1:

    C            0.000010743414    -0.000300807256    -0.183804883737
    C            0.957713550297    -0.758652763672     0.503768241184
    C            0.951016141331    -0.752850146557     1.898119059254
    C            0.000219336296     0.000191031317     2.591824220968
    C           -0.950755135353     0.752944842567     1.898015873795
    C           -0.957666166338     0.758272929818     0.503680256563
    C           -0.000091972026    -0.000066332510    -1.669245891667
    H            1.694868290519    -1.342244948085    -0.040435463923
    H            1.688147323011    -1.336438110789     2.440304552875
    H            0.000261573819     0.000316371618     3.677427277259
    H           -1.687852198070     1.336638567522     2.440140566428
    H           -1.694870146647     1.341678308550    -0.040650762145
    N           -0.717865892877    -0.906451582422    -2.312745110838
    N            0.717419667282     0.906848047020    -2.312360761401
    H            0.767385760342     0.969721569829    -3.324180102738
    H            1.251795005721     1.581009797583    -1.778145232509
    H           -1.251511256614    -1.581473210150    -1.778902587301
    H           -0.767340708040    -0.969224983477    -3.324611061642

	Cleaning optimization helper files.


Properties will be evaluated at   0.000000,   0.000000,   0.000000 Bohr

Properties computed using the  density matrix

  Nuclear Dipole Moment: (a.u.)
     X:     0.0008      Y:    -0.0000      Z:    -1.6075

  Electronic Dipole Moment: (a.u.)
     X:    -0.0003      Y:    -0.0004      Z:    -1.0018

  Dipole Moment: (a.u.)
     X:     0.0006      Y:    -0.0004      Z:    -2.6093     Total:     2.6093

  Dipole Moment: (Debye)
     X:     0.0015      Y:    -0.0011      Z:    -6.6322     Total:     6.6322

  Quadrupole Moment: (Debye Ang)
    XX:   -43.8909     YY:   -43.1105     ZZ:   -13.3710
    XY:     1.6500     XZ:    -0.0008     YZ:     0.0041

  Traceless Quadrupole Moment: (Debye Ang)
    XX:   -10.4334     YY:    -9.6530     ZZ:    20.0864
    XY:     1.6500     XZ:    -0.0008     YZ:     0.0041

  Mulliken Charges: (a.u.)
   Center  Symbol    Alpha    Beta     Spin     Total
       1     C     2.99542  2.99542  0.00000  0.00917
       2     C     3.07010  3.07010  0.00000 -0.14020
       3     C     3.06290  3.06290  0.00000 -0.12580
       4     C     3.05379  3.05379  0.00000 -0.10758
       5     C     3.06290  3.06290  0.00000 -0.12579
       6     C     3.07008  3.07008  0.00000 -0.14016
       7     C     2.74885  2.74885  0.00000  0.50231
       8     H     0.41373  0.41373  0.00000  0.17254
       9     H     0.40754  0.40754  0.00000  0.18492
      10     H     0.40701  0.40701  0.00000  0.18598
      11     H     0.40754  0.40754  0.00000  0.18492
      12     H     0.41373  0.41373  0.00000  0.17255
      13     N     3.84327  3.84327  0.00000 -0.68654
      14     N     3.84326  3.84326  0.00000 -0.68653
      15     H     0.30491  0.30491  0.00000  0.39017
      16     H     0.29504  0.29504  0.00000  0.40993
      17     H     0.29503  0.29503  0.00000  0.40993
      18     H     0.30491  0.30491  0.00000  0.39018

   Total alpha = 32.00000, Total beta = 32.00000, Total charge =  1.00000


*** Psi4 exiting successfully. Buy a developer a beer!
