    -----------------------------------------------------------------------
          Psi4: An Open-Source Ab Initio Electronic Structure Package
                              Psi4 (no tag) Driver

                          Git: Rev {detached?}  

    J. M. Turney, A. C. Simmonett, R. M. Parrish, E. G. Hohenstein,
    F. A. Evangelista, J. T. Fermann, B. J. Mintz, L. A. Burns, J. J. Wilke,
    M. L. Abrams, N. J. Russ, M. L. Leininger, C. L. Janssen, E. T. Seidl,
    W. D. Allen, H. F. Schaefer, R. A. King, E. F. Valeev, C. D. Sherrill,
    and T. D. Crawford, WIREs Comput. Mol. Sci. 2, 556-565 (2012)
    (doi: 10.1002/wcms.93)

                         Additional Contributions by
    A. E. DePrince, M. Saitow, U. Bozkaya, A. Yu. Sokolov
    -----------------------------------------------------------------------


    Psi4 started on: Tue Jul  5 16:42:42 2016

    Process ID:  23117
    PSI4DATADIR: /export131/home/mjharvey/miniconda3/share
    Memory level set to 256.000 MB

  ==> Input File <==

--------------------------------------------------------------------------
set {
	reference rhf
	basis 6-31G*
}


set_num_threads( 1 )
memory 2 gb

molecule MOL {
0 1

H	 -2.826565	 0.340889	 -0.233071
O	 -2.035884	 -0.060112	 0.102722
C	 -0.955155	 0.788182	 -0.092531
C	 0.353668	 0.040312	 -0.004810
H	 -0.985057	 1.290372	 -1.054184
H	 -0.974469	 1.533190	 0.688632
F	 0.548315	 -0.418436	 1.226545
F	 0.348852	 -0.998654	 -0.824399
F	 1.388009	 0.795454	 -0.313761

	symmetry c1
}
set optking {
	frozen_dihedral = ("
		7 4 3 5
	")
}

ee = energy('scf')
oeprop('DIPOLE', 'QUADRUPOLE', 'MULLIKEN_CHARGES')
f=open( 'psi4out.xyz', 'w' )
f.write( "9  " )
f.write( str(ee) + "\n" )
f.write( MOL.save_string_xyz() )
f.close()
--------------------------------------------------------------------------

  Memory set to   2.000 GiB by Python script.

*** tstart() called on cx1-3-2-1.cx1.hpc.ic.ac.uk
*** at Tue Jul  5 16:42:43 2016


         ---------------------------------------------------------
                                   SCF
            by Justin Turney, Rob Parrish, and Andy Simmonett
                              RHF Reference
                        1 Threads,   2000 MiB Core
         ---------------------------------------------------------

  ==> Geometry <==

    Molecular point group: c1
    Full point group: C1

    Geometry (in Angstrom), charge = 0, multiplicity = 1:

       Center              X                  Y                   Z               Mass       
    ------------   -----------------  -----------------  -----------------  -----------------
           H         -2.814661798912     0.337293856554    -0.248576933731     1.007825032070
           O         -2.023980798912    -0.063707143446     0.087216066269    15.994914619560
           C         -0.943251798912     0.784586856554    -0.108036933731    12.000000000000
           C          0.365571201088     0.036716856554    -0.020315933731    12.000000000000
           H         -0.973153798912     1.286776856554    -1.069689933731     1.007825032070
           H         -0.962565798912     1.529594856554     0.673126066269     1.007825032070
           F          0.560218201088    -0.422031143446     1.211039066269    18.998403224000
           F          0.360755201088    -1.002249143446    -0.839904933731    18.998403224000
           F          1.399912201088     0.791858856554    -0.329266933731    18.998403224000

  Running in c1 symmetry.

  Rotational constants: A =      0.18486  B =      0.09442  C =      0.09394 [cm^-1]
  Rotational constants: A =   5541.82561  B =   2830.52380  C =   2816.18618 [MHz]
  Nuclear repulsion =  276.198598469328545

  Charge       = 0
  Multiplicity = 1
  Electrons    = 50
  Nalpha       = 25
  Nbeta        = 25

  ==> Algorithm <==

  SCF Algorithm Type is DF.
  DIIS enabled.
  MOM disabled.
  Fractional occupation disabled.
  Guess Type is CORE.
  Energy threshold   = 1.00e-06
  Density threshold  = 1.00e-06
  Integral threshold = 0.00e+00

  ==> Primary Basis <==

  Basis Set: 6-31G*
    Number of shells: 42
    Number of basis function: 96
    Number of Cartesian functions: 96
    Spherical Harmonics?: false
    Max angular momentum: 2

  ==> Pre-Iterations <==

   -------------------------------------------------------
    Irrep   Nso     Nmo     Nalpha   Nbeta   Ndocc  Nsocc
   -------------------------------------------------------
     A         96      96       0       0       0       0
   -------------------------------------------------------
    Total      96      96      25      25      25       0
   -------------------------------------------------------

 OEINTS: Overlap, kinetic, potential, dipole, and quadrupole integrals
         stored in file 35.

  ==> Integral Setup <==

  ==> DFJK: Density-Fitted J/K Matrices <==

    J tasked:                  Yes
    K tasked:                  Yes
    wK tasked:                  No
    OpenMP threads:              1
    Integrals threads:           1
    Memory (MB):              1430
    Algorithm:                Core
    Integral Cache:           NONE
    Schwarz Cutoff:          1E-12
    Fitting Condition:       1E-12

   => Auxiliary Basis Set <=

  Basis Set: 
    Number of shells: 171
    Number of basis function: 561
    Number of Cartesian functions: 561
    Spherical Harmonics?: false
    Max angular momentum: 3

  Minimum eigenvalue in the overlap matrix is 1.9497260299E-03.
  Using Symmetric Orthogonalization.
  SCF Guess: Core (One-Electron) Hamiltonian.

  ==> Iterations <==

                           Total Energy        Delta E     RMS |[F,P]|

   @DF-RHF iter   1:  -397.40474420469116   -3.97405e+02   8.91888e-02 
   @DF-RHF iter   2:  -265.04024192092697    1.32365e+02   9.86314e-02 DIIS
   @DF-RHF iter   3:  -398.30663748290453   -1.33266e+02   6.37622e-02 DIIS
   @DF-RHF iter   4:  -444.60639611224326   -4.62998e+01   3.34457e-02 DIIS
   @DF-RHF iter   5:  -449.97548908760086   -5.36909e+00   1.42998e-02 DIIS
   @DF-RHF iter   6:  -450.59999742312993   -6.24508e-01   3.69300e-03 DIIS
   @DF-RHF iter   7:  -450.64492533065049   -4.49279e-02   1.48733e-03 DIIS
   @DF-RHF iter   8:  -450.65513567257915   -1.02103e-02   6.31003e-04 DIIS
   @DF-RHF iter   9:  -450.65703582816298   -1.90016e-03   9.15575e-05 DIIS
   @DF-RHF iter  10:  -450.65709733988729   -6.15117e-05   3.48332e-05 DIIS
   @DF-RHF iter  11:  -450.65710480225266   -7.46237e-06   1.07966e-05 DIIS
   @DF-RHF iter  12:  -450.65710572766739   -9.25415e-07   2.31298e-06 DIIS
   @DF-RHF iter  13:  -450.65710576962238   -4.19550e-08   8.51404e-07 DIIS

  ==> Post-Iterations <==

    Orbital Energies (a.u.)
    -----------------------

    Doubly Occupied:                                                      

       1A    -26.344586     2A    -26.331142     3A    -26.329945  
       4A    -20.587725     5A    -11.499617     6A    -11.309464  
       7A     -1.733990     8A     -1.635239     9A     -1.625715  
      10A     -1.400665    11A     -1.047826    12A     -0.917101  
      13A     -0.825932    14A     -0.822557    15A     -0.784686  
      16A     -0.732097    17A     -0.708031    18A     -0.697666  
      19A     -0.664997    20A     -0.651475    21A     -0.636173  
      22A     -0.634235    23A     -0.597367    24A     -0.526695  
      25A     -0.476222  

    Virtual:                                                              

      26A      0.199261    27A      0.272634    28A      0.289571  
      29A      0.349233    30A      0.414997    31A      0.421739  
      32A      0.478771    33A      0.482588    34A      0.698905  
      35A      0.745221    36A      0.757917    37A      0.784249  
      38A      0.822544    39A      0.893208    40A      0.942969  
      41A      1.059738    42A      1.092490    43A      1.160469  
      44A      1.229765    45A      1.238263    46A      1.297243  
      47A      1.322918    48A      1.351191    49A      1.390198  
      50A      1.462733    51A      1.479481    52A      1.572309  
      53A      1.624772    54A      1.630963    55A      1.643413  
      56A      1.676458    57A      1.679086    58A      1.704087  
      59A      1.772183    60A      1.866752    61A      1.922483  
      62A      1.955742    63A      1.978407    64A      1.989055  
      65A      2.124871    66A      2.140623    67A      2.152719  
      68A      2.170577    69A      2.273188    70A      2.288371  
      71A      2.325281    72A      2.352990    73A      2.397273  
      74A      2.416069    75A      2.421433    76A      2.442409  
      77A      2.480265    78A      2.593422    79A      2.636540  
      80A      2.694080    81A      2.842213    82A      2.844306  
      83A      2.894471    84A      3.117594    85A      3.143304  
      86A      3.191254    87A      3.271986    88A      3.421670  
      89A      3.427293    90A      3.458243    91A      4.135152  
      92A      4.606115    93A      4.742247    94A      4.897609  
      95A      5.130972    96A      5.711067  

    Final Occupation by Irrep:
              A 
    DOCC [    25 ]

  Energy converged.

  @DF-RHF Final Energy:  -450.65710576962238

   => Energetics <=

    Nuclear Repulsion Energy =            276.1985984693285445
    One-Electron Energy =               -1174.6692548958010320
    Two-Electron Energy =                 447.8135506568495998
    DFT Exchange-Correlation Energy =       0.0000000000000000
    Empirical Dispersion Energy =           0.0000000000000000
    PCM Polarization Energy =               0.0000000000000000
    EFP Energy =                            0.0000000000000000
    Total Energy =                       -450.6571057696228877

    Alert: EFP and PCM quantities not currently incorporated into SCF psivars.

Properties will be evaluated at   0.000000,   0.000000,   0.000000 Bohr
  ==> Properties <==


Properties computed using the SCF density matrix

  Nuclear Dipole Moment: (a.u.)
     X:    -6.6525      Y:     3.5528      Z:    -0.6439

  Electronic Dipole Moment: (a.u.)
     X:     5.8250      Y:    -2.5104      Z:     0.2537

  Dipole Moment: (a.u.)
     X:    -0.8275      Y:     1.0424      Z:    -0.3902     Total:     1.3869

  Dipole Moment: (Debye)
     X:    -2.1032      Y:     2.6495      Z:    -0.9918     Total:     3.5252


  Saving occupied orbitals to File 180.

*** tstop() called on cx1-3-2-1.cx1.hpc.ic.ac.uk at Tue Jul  5 16:42:47 2016
Module time:
	user time   =       4.28 seconds =       0.07 minutes
	system time =       0.05 seconds =       0.00 minutes
	total time  =          4 seconds =       0.07 minutes
Total time:
	user time   =       4.28 seconds =       0.07 minutes
	system time =       0.05 seconds =       0.00 minutes
	total time  =          4 seconds =       0.07 minutes


Properties will be evaluated at   0.000000,   0.000000,   0.000000 Bohr

Properties computed using the  density matrix

  Nuclear Dipole Moment: (a.u.)
     X:    -6.6525      Y:     3.5528      Z:    -0.6439

  Electronic Dipole Moment: (a.u.)
     X:     5.8250      Y:    -2.5104      Z:     0.2537

  Dipole Moment: (a.u.)
     X:    -0.8275      Y:     1.0424      Z:    -0.3902     Total:     1.3869

  Dipole Moment: (Debye)
     X:    -2.1032      Y:     2.6495      Z:    -0.9918     Total:     3.5252

  Quadrupole Moment: (Debye Ang)
    XX:   -28.1747     YY:   -31.8732     ZZ:   -33.1029
    XY:    -4.2995     XZ:     2.2933     YZ:    -0.3718

  Traceless Quadrupole Moment: (Debye Ang)
    XX:     2.8756     YY:    -0.8230     ZZ:    -2.0526
    XY:    -4.2995     XZ:     2.2933     YZ:    -0.3718

  Mulliken Charges: (a.u.)
   Center  Symbol    Alpha    Beta     Spin     Total
       1     H     0.27092  0.27092  0.00000  0.45817
       2     O     4.36265  4.36265  0.00000 -0.72531
       3     C     3.05319  3.05319  0.00000 -0.10638
       4     C     2.45284  2.45284  0.00000  1.09432
       5     H     0.41250  0.41250  0.00000  0.17501
       6     H     0.40948  0.40948  0.00000  0.18103
       7     F     4.68141  4.68141  0.00000 -0.36282
       8     F     4.67860  4.67860  0.00000 -0.35721
       9     F     4.67841  4.67841  0.00000 -0.35682

   Total alpha = 25.00000, Total beta = 25.00000, Total charge = -0.00000


*** PSI4 exiting successfully. Buy a developer a beer!
