    -----------------------------------------------------------------------
          Psi4: An Open-Source Ab Initio Electronic Structure Package
                              Psi4 (no tag) Driver

                          Git: Rev {detached?}  

    J. M. Turney, A. C. Simmonett, R. M. Parrish, E. G. Hohenstein,
    F. A. Evangelista, J. T. Fermann, B. J. Mintz, L. A. Burns, J. J. Wilke,
    M. L. Abrams, N. J. Russ, M. L. Leininger, C. L. Janssen, E. T. Seidl,
    W. D. Allen, H. F. Schaefer, R. A. King, E. F. Valeev, C. D. Sherrill,
    and T. D. Crawford, WIREs Comput. Mol. Sci. 2, 556-565 (2012)
    (doi: 10.1002/wcms.93)

                         Additional Contributions by
    A. E. DePrince, M. Saitow, U. Bozkaya, A. Yu. Sokolov
    -----------------------------------------------------------------------


    Psi4 started on: Tue Jul  5 16:29:20 2016

    Process ID:   7136
    PSI4DATADIR: /export131/home/mjharvey/miniconda3/share
    Memory level set to 256.000 MB

  ==> Input File <==

--------------------------------------------------------------------------
set {
	reference rhf
	basis 6-31G*
}


set_num_threads( 1 )
memory 2 gb

molecule MOL {
0 1

H	 -3.269016	 -0.876744	 0.468090
C	 -2.809304	 0.000122	 0.025886
N	 -1.391456	 0.000019	 0.300661
H	 -3.037557	 -0.000063	 -1.044252
H	 -3.269223	 0.876956	 0.468000
C	 -0.611429	 0.458456	 -0.832115
C	 -0.920062	 -1.291487	 0.760670
H	 -0.734103	 -0.199921	 -1.697563
H	 -0.958435	 1.446087	 -1.118005
C	 0.863211	 0.530104	 -0.467599
H	 -1.492187	 -1.580111	 1.636413
H	 -1.063165	 -2.065706	 0.000659
C	 0.554578	 -1.219838	 1.125186
H	 1.435336	 0.818728	 -1.343342
H	 1.006313	 1.304322	 0.292412
N	 1.334604	 -0.761403	 -0.007591
H	 0.901584	 -2.207471	 1.411076
H	 0.677251	 -0.561463	 1.990633
C	 2.752452	 -0.761506	 0.267184
H	 3.299088	 -0.473116	 -0.623767
H	 3.072482	 -1.759099	 0.546857
H	 3.031883	 -0.076619	 1.073499

	symmetry c1
}
ee = energy('scf')
oeprop('DIPOLE', 'QUADRUPOLE', 'MULLIKEN_CHARGES')
f=open( 'psi4out.xyz', 'w' )
f.write( "22  " )
f.write( str(ee) + "\n" )
f.write( MOL.save_string_xyz() )
f.close()
--------------------------------------------------------------------------

  Memory set to   2.000 GiB by Python script.

*** tstart() called on cx1-3-4-4.cx1.hpc.ic.ac.uk
*** at Tue Jul  5 16:29:20 2016


         ---------------------------------------------------------
                                   SCF
            by Justin Turney, Rob Parrish, and Andy Simmonett
                              RHF Reference
                        1 Threads,   2000 MiB Core
         ---------------------------------------------------------

  ==> Geometry <==

    Molecular point group: c1
    Full point group: C1

    Geometry (in Angstrom), charge = 0, multiplicity = 1:

       Center              X                  Y                   Z               Mass       
    ------------   -----------------  -----------------  -----------------  -----------------
           H         -3.240574445894    -0.495835658480     0.321473362268     1.007825032070
           C         -2.780862445894     0.381030341520    -0.120730637732    12.000000000000
           N         -1.363014445894     0.380927341520     0.154044362268    14.003074004780
           H         -3.009115445894     0.380845341520    -1.190868637732     1.007825032070
           H         -3.240781445894     1.257864341520     0.321383362268     1.007825032070
           C         -0.582987445894     0.839364341520    -0.978731637732    12.000000000000
           C         -0.891620445894    -0.910578658480     0.614053362268    12.000000000000
           H         -0.705661445894     0.180987341520    -1.844179637732     1.007825032070
           H         -0.929993445894     1.826995341520    -1.264621637732     1.007825032070
           C          0.891652554106     0.911012341520    -0.614215637732    12.000000000000
           H         -1.463745445894    -1.199202658480     1.489796362268     1.007825032070
           H         -1.034723445894    -1.684797658480    -0.145957637732     1.007825032070
           C          0.583019554106    -0.838929658480     0.978569362268    12.000000000000
           H          1.463777554106     1.199636341520    -1.489958637732     1.007825032070
           H          1.034754554106     1.685230341520     0.145795362268     1.007825032070
           N          1.363045554106    -0.380494658480    -0.154207637732    14.003074004780
           H          0.930025554106    -1.826562658480     1.264459362268     1.007825032070
           H          0.705692554106    -0.180554658480     1.844016362268     1.007825032070
           C          2.780893554106    -0.380597658480     0.120567362268    12.000000000000
           H          3.327529554106    -0.092207658480    -0.770383637732     1.007825032070
           H          3.100923554106    -1.378190658480     0.400240362268     1.007825032070
           H          3.060324554106     0.304289341520     0.926882362268     1.007825032070

  Running in c1 symmetry.

  Rotational constants: A =      0.15405  B =      0.04759  C =      0.03875 [cm^-1]
  Rotational constants: A =   4618.26592  B =   1426.72274  C =   1161.64795 [MHz]
  Nuclear repulsion =  421.484627242975819

  Charge       = 0
  Multiplicity = 1
  Electrons    = 64
  Nalpha       = 32
  Nbeta        = 32

  ==> Algorithm <==

  SCF Algorithm Type is DF.
  DIIS enabled.
  MOM disabled.
  Fractional occupation disabled.
  Guess Type is CORE.
  Energy threshold   = 1.00e-06
  Density threshold  = 1.00e-06
  Integral threshold = 0.00e+00

  ==> Primary Basis <==

  Basis Set: 6-31G*
    Number of shells: 76
    Number of basis function: 148
    Number of Cartesian functions: 148
    Spherical Harmonics?: false
    Max angular momentum: 2

  ==> Pre-Iterations <==

   -------------------------------------------------------
    Irrep   Nso     Nmo     Nalpha   Nbeta   Ndocc  Nsocc
   -------------------------------------------------------
     A        148     148       0       0       0       0
   -------------------------------------------------------
    Total     148     148      32      32      32       0
   -------------------------------------------------------

 OEINTS: Overlap, kinetic, potential, dipole, and quadrupole integrals
         stored in file 35.

  ==> Integral Setup <==

  ==> DFJK: Density-Fitted J/K Matrices <==

    J tasked:                  Yes
    K tasked:                  Yes
    wK tasked:                  No
    OpenMP threads:              1
    Integrals threads:           1
    Memory (MB):              1430
    Algorithm:                Core
    Integral Cache:           NONE
    Schwarz Cutoff:          1E-12
    Fitting Condition:       1E-12

   => Auxiliary Basis Set <=

  Basis Set: 
    Number of shells: 318
    Number of basis function: 998
    Number of Cartesian functions: 998
    Spherical Harmonics?: false
    Max angular momentum: 3

  Minimum eigenvalue in the overlap matrix is 3.0256865979E-03.
  Using Symmetric Orthogonalization.
  SCF Guess: Core (One-Electron) Hamiltonian.

  ==> Iterations <==

                           Total Energy        Delta E     RMS |[F,P]|

   @DF-RHF iter   1:  -244.98775178374234   -2.44988e+02   7.20772e-02 
   @DF-RHF iter   2:  -193.81569849042245    5.11721e+01   5.47298e-02 DIIS
   @DF-RHF iter   3:  -301.96245617726612   -1.08147e+02   4.35100e-02 DIIS
   @DF-RHF iter   4:  -340.59177119648899   -3.86293e+01   1.67781e-02 DIIS
   @DF-RHF iter   5:  -343.93925719877058   -3.34749e+00   4.66012e-03 DIIS
   @DF-RHF iter   6:  -344.19708847824535   -2.57831e-01   1.54190e-03 DIIS
   @DF-RHF iter   7:  -344.22262987176890   -2.55414e-02   3.61850e-04 DIIS
   @DF-RHF iter   8:  -344.22446632594432   -1.83645e-03   1.86389e-04 DIIS
   @DF-RHF iter   9:  -344.22487707695717   -4.10751e-04   7.77612e-05 DIIS
   @DF-RHF iter  10:  -344.22495461084878   -7.75339e-05   1.66064e-05 DIIS
   @DF-RHF iter  11:  -344.22495834036482   -3.72952e-06   4.64501e-06 DIIS
   @DF-RHF iter  12:  -344.22495866428807   -3.23923e-07   1.24329e-06 DIIS
   @DF-RHF iter  13:  -344.22495868555399   -2.12659e-08   3.32388e-07 DIIS

  ==> Post-Iterations <==

    Orbital Energies (a.u.)
    -----------------------

    Doubly Occupied:                                                      

       1A    -15.541555     2A    -15.539209     3A    -11.238567  
       4A    -11.238445     5A    -11.237693     6A    -11.237649  
       7A    -11.235676     8A    -11.234536     9A     -1.254756  
      10A     -1.203767    11A     -1.024389    12A     -0.991248  
      13A     -0.910861    14A     -0.867120    15A     -0.835217  
      16A     -0.755188    17A     -0.664552    18A     -0.635252  
      19A     -0.630410    20A     -0.624658    21A     -0.620333  
      22A     -0.580248    23A     -0.551076    24A     -0.547773  
      25A     -0.542214    26A     -0.519399    27A     -0.497625  
      28A     -0.486924    29A     -0.464195    30A     -0.454225  
      31A     -0.348784    32A     -0.343158  

    Virtual:                                                              

      33A      0.235446    34A      0.244586    35A      0.274894  
      36A      0.286680    37A      0.292130    38A      0.308375  
      39A      0.310396    40A      0.321893    41A      0.333650  
      42A      0.333992    43A      0.337563    44A      0.344212  
      45A      0.356734    46A      0.360726    47A      0.370182  
      48A      0.390670    49A      0.426471    50A      0.450334  
      51A      0.467100    52A      0.472342    53A      0.482104  
      54A      0.496121    55A      0.716973    56A      0.741006  
      57A      0.747491    58A      0.762653    59A      0.789062  
      60A      0.794635    61A      0.809697    62A      0.855077  
      63A      0.867167    64A      0.875646    65A      0.921963  
      66A      0.929512    67A      0.949072    68A      0.990302  
      69A      0.993697    70A      1.011417    71A      1.073360  
      72A      1.088351    73A      1.113787    74A      1.118301  
      75A      1.121848    76A      1.137320    77A      1.149379  
      78A      1.158393    79A      1.167112    80A      1.172319  
      81A      1.177828    82A      1.197035    83A      1.201621  
      84A      1.208577    85A      1.238166    86A      1.245316  
      87A      1.248959    88A      1.260363    89A      1.292070  
      90A      1.295370    91A      1.374047    92A      1.414842  
      93A      1.524575    94A      1.568591    95A      1.611971  
      96A      1.639302    97A      1.664614    98A      1.686410  
      99A      1.717768   100A      1.768375   101A      1.819336  
     102A      1.917508   103A      1.998412   104A      2.065814  
     105A      2.113011   106A      2.142067   107A      2.163216  
     108A      2.201075   109A      2.217988   110A      2.236397  
     111A      2.314790   112A      2.335192   113A      2.342071  
     114A      2.365174   115A      2.385373   116A      2.411337  
     117A      2.417613   118A      2.438329   119A      2.458536  
     120A      2.491627   121A      2.554713   122A      2.583835  
     123A      2.585450   124A      2.626536   125A      2.636322  
     126A      2.671334   127A      2.683499   128A      2.689475  
     129A      2.795192   130A      2.811039   131A      2.865207  
     132A      2.937471   133A      2.964818   134A      2.976323  
     135A      3.152663   136A      3.179585   137A      3.182413  
     138A      3.209213   139A      3.264884   140A      3.316734  
     141A      4.495420   142A      4.534223   143A      4.671157  
     144A      4.690996   145A      4.708191   146A      4.831726  
     147A      4.971652   148A      4.980657  

    Final Occupation by Irrep:
              A 
    DOCC [    32 ]

  Energy converged.

  @DF-RHF Final Energy:  -344.22495868555399

   => Energetics <=

    Nuclear Repulsion Energy =            421.4846272429758187
    One-Electron Energy =               -1301.7054519427908872
    Two-Electron Energy =                 535.9958660142622193
    DFT Exchange-Correlation Energy =       0.0000000000000000
    Empirical Dispersion Energy =           0.0000000000000000
    PCM Polarization Energy =               0.0000000000000000
    EFP Energy =                            0.0000000000000000
    Total Energy =                       -344.2249586855527923

    Alert: EFP and PCM quantities not currently incorporated into SCF psivars.

Properties will be evaluated at   0.000000,   0.000000,   0.000000 Bohr
  ==> Properties <==


Properties computed using the SCF density matrix

  Nuclear Dipole Moment: (a.u.)
     X:    -0.0015      Y:    -0.0202      Z:     0.0076

  Electronic Dipole Moment: (a.u.)
     X:    -0.0201      Y:    -0.0165      Z:    -0.0261

  Dipole Moment: (a.u.)
     X:    -0.0215      Y:    -0.0367      Z:    -0.0185     Total:     0.0464

  Dipole Moment: (Debye)
     X:    -0.0547      Y:    -0.0933      Z:    -0.0471     Total:     0.1179


  Saving occupied orbitals to File 180.

*** tstop() called on cx1-3-4-4.cx1.hpc.ic.ac.uk at Tue Jul  5 16:29:37 2016
Module time:
	user time   =      16.50 seconds =       0.28 minutes
	system time =       0.17 seconds =       0.00 minutes
	total time  =         17 seconds =       0.28 minutes
Total time:
	user time   =      16.50 seconds =       0.28 minutes
	system time =       0.17 seconds =       0.00 minutes
	total time  =         17 seconds =       0.28 minutes


Properties will be evaluated at   0.000000,   0.000000,   0.000000 Bohr

Properties computed using the  density matrix

  Nuclear Dipole Moment: (a.u.)
     X:    -0.0015      Y:    -0.0202      Z:     0.0076

  Electronic Dipole Moment: (a.u.)
     X:    -0.0201      Y:    -0.0165      Z:    -0.0261

  Dipole Moment: (a.u.)
     X:    -0.0215      Y:    -0.0367      Z:    -0.0185     Total:     0.0464

  Dipole Moment: (Debye)
     X:    -0.0547      Y:    -0.0933      Z:    -0.0471     Total:     0.1179

  Quadrupole Moment: (Debye Ang)
    XX:   -48.8732     YY:   -51.8337     ZZ:   -52.0928
    XY:     1.1030     XZ:     0.9325     YZ:    -3.1550

  Traceless Quadrupole Moment: (Debye Ang)
    XX:     2.0600     YY:    -0.9005     ZZ:    -1.1595
    XY:     1.1030     XZ:     0.9325     YZ:    -3.1550

  Mulliken Charges: (a.u.)
   Center  Symbol    Alpha    Beta     Spin     Total
       1     H     0.42047  0.42047  0.00000  0.15906
       2     C     3.14054  3.14054  0.00000 -0.28108
       3     N     3.78640  3.78640  0.00000 -0.57281
       4     H     0.42711  0.42711  0.00000  0.14577
       5     H     0.41561  0.41561  0.00000  0.16877
       6     C     3.05857  3.05857  0.00000 -0.11714
       7     C     3.05933  3.05933  0.00000 -0.11867
       8     H     0.42816  0.42816  0.00000  0.14369
       9     H     0.41708  0.41708  0.00000  0.16585
      10     C     3.05643  3.05643  0.00000 -0.11287
      11     H     0.41723  0.41723  0.00000  0.16554
      12     H     0.42877  0.42877  0.00000  0.14246
      13     C     3.05649  3.05649  0.00000 -0.11297
      14     H     0.41818  0.41818  0.00000  0.16364
      15     H     0.42851  0.42851  0.00000  0.14298
      16     N     3.78712  3.78712  0.00000 -0.57423
      17     H     0.41818  0.41818  0.00000  0.16365
      18     H     0.42853  0.42853  0.00000  0.14293
      19     C     3.14015  3.14015  0.00000 -0.28031
      20     H     0.41684  0.41684  0.00000  0.16632
      21     H     0.41684  0.41684  0.00000  0.16632
      22     H     0.43345  0.43345  0.00000  0.13311

   Total alpha = 32.00000, Total beta = 32.00000, Total charge = -0.00000


*** PSI4 exiting successfully. Buy a developer a beer!
