    -----------------------------------------------------------------------
          Psi4: An Open-Source Ab Initio Electronic Structure Package
                              Psi4 (no tag) Driver

                          Git: Rev {detached?}  

    J. M. Turney, A. C. Simmonett, R. M. Parrish, E. G. Hohenstein,
    F. A. Evangelista, J. T. Fermann, B. J. Mintz, L. A. Burns, J. J. Wilke,
    M. L. Abrams, N. J. Russ, M. L. Leininger, C. L. Janssen, E. T. Seidl,
    W. D. Allen, H. F. Schaefer, R. A. King, E. F. Valeev, C. D. Sherrill,
    and T. D. Crawford, WIREs Comput. Mol. Sci. 2, 556-565 (2012)
    (doi: 10.1002/wcms.93)

                         Additional Contributions by
    A. E. DePrince, M. Saitow, U. Bozkaya, A. Yu. Sokolov
    -----------------------------------------------------------------------


    Psi4 started on: Tue Jul  5 16:21:01 2016

    Process ID:  19114
    PSI4DATADIR: /export131/home/mjharvey/miniconda3/share
    Memory level set to 256.000 MB

  ==> Input File <==

--------------------------------------------------------------------------
set {
	reference rhf
	basis 6-31G*
}


set_num_threads( 1 )
memory 2 gb

molecule MOL {
0 1

H	 -1.079765	 0.922670	 0.032619
N	 -0.712432	 0.000013	 -0.096310
C	 0.734192	 -0.000004	 0.040609
H	 -0.980620	 -0.293721	 -1.015360
H	 1.139899	 -0.873598	 -0.456463
H	 1.139939	 0.873831	 -0.456100
H	 1.096456	 -0.000300	 1.069655

	symmetry c1
}
ee = energy('scf')
oeprop('DIPOLE', 'QUADRUPOLE', 'MULLIKEN_CHARGES')
f=open( 'psi4out.xyz', 'w' )
f.write( "7  " )
f.write( str(ee) + "\n" )
f.write( MOL.save_string_xyz() )
f.close()
--------------------------------------------------------------------------

  Memory set to   2.000 GiB by Python script.

*** tstart() called on cx1-3-15-2.cx1.hpc.ic.ac.uk
*** at Tue Jul  5 16:21:02 2016


         ---------------------------------------------------------
                                   SCF
            by Justin Turney, Rob Parrish, and Andy Simmonett
                              RHF Reference
                        1 Threads,   2000 MiB Core
         ---------------------------------------------------------

  ==> Geometry <==

    Molecular point group: c1
    Full point group: C1

    Geometry (in Angstrom), charge = 0, multiplicity = 1:

       Center              X                  Y                   Z               Mass       
    ------------   -----------------  -----------------  -----------------  -----------------
           H         -1.084928036610     0.902248216788     0.087171764715     1.007825032070
           N         -0.717595036610    -0.020408783212    -0.041757235285    14.003074004780
           C          0.729028963390    -0.020425783212     0.095161764715    12.000000000000
           H         -0.985783036610    -0.314142783212    -0.960807235285     1.007825032070
           H          1.134735963390    -0.894019783212    -0.401910235285     1.007825032070
           H          1.134775963390     0.853409216788    -0.401547235285     1.007825032070
           H          1.091292963390    -0.020721783212     1.124207764715     1.007825032070

  Running in c1 symmetry.

  Rotational constants: A =      3.53161  B =      0.77191  C =      0.74036 [cm^-1]
  Rotational constants: A = 105875.15060  B =  23141.39064  C =  22195.44096 [MHz]
  Nuclear repulsion =   42.345324023458055

  Charge       = 0
  Multiplicity = 1
  Electrons    = 18
  Nalpha       = 9
  Nbeta        = 9

  ==> Algorithm <==

  SCF Algorithm Type is DF.
  DIIS enabled.
  MOM disabled.
  Fractional occupation disabled.
  Guess Type is CORE.
  Energy threshold   = 1.00e-06
  Density threshold  = 1.00e-06
  Integral threshold = 0.00e+00

  ==> Primary Basis <==

  Basis Set: 6-31G*
    Number of shells: 22
    Number of basis function: 40
    Number of Cartesian functions: 40
    Spherical Harmonics?: false
    Max angular momentum: 2

  ==> Pre-Iterations <==

   -------------------------------------------------------
    Irrep   Nso     Nmo     Nalpha   Nbeta   Ndocc  Nsocc
   -------------------------------------------------------
     A         40      40       0       0       0       0
   -------------------------------------------------------
    Total      40      40       9       9       9       0
   -------------------------------------------------------

 OEINTS: Overlap, kinetic, potential, dipole, and quadrupole integrals
         stored in file 35.

  ==> Integral Setup <==

  ==> DFJK: Density-Fitted J/K Matrices <==

    J tasked:                  Yes
    K tasked:                  Yes
    wK tasked:                  No
    OpenMP threads:              1
    Integrals threads:           1
    Memory (MB):              1430
    Algorithm:                Core
    Integral Cache:           NONE
    Schwarz Cutoff:          1E-12
    Fitting Condition:       1E-12

   => Auxiliary Basis Set <=

  Basis Set: 
    Number of shells: 93
    Number of basis function: 287
    Number of Cartesian functions: 287
    Spherical Harmonics?: false
    Max angular momentum: 3

  Minimum eigenvalue in the overlap matrix is 8.8765771691E-03.
  Using Symmetric Orthogonalization.
  SCF Guess: Core (One-Electron) Hamiltonian.

  ==> Iterations <==

                           Total Energy        Delta E     RMS |[F,P]|

   @DF-RHF iter   1:   -79.81549676811701   -7.98155e+01   1.10403e-01 
   @DF-RHF iter   2:   -83.00517818493449   -3.18968e+00   7.34136e-02 DIIS
   @DF-RHF iter   3:   -93.88473315263266   -1.08796e+01   4.24097e-02 DIIS
   @DF-RHF iter   4:   -94.99534696204100   -1.11061e+00   1.57897e-02 DIIS
   @DF-RHF iter   5:   -95.17763276711807   -1.82286e-01   6.01434e-03 DIIS
   @DF-RHF iter   6:   -95.20635607061530   -2.87233e-02   6.14115e-04 DIIS
   @DF-RHF iter   7:   -95.20694917939221   -5.93109e-04   2.50239e-04 DIIS
   @DF-RHF iter   8:   -95.20702394918288   -7.47698e-05   3.94658e-05 DIIS
   @DF-RHF iter   9:   -95.20702635745019   -2.40827e-06   7.67521e-06 DIIS
   @DF-RHF iter  10:   -95.20702645939730   -1.01947e-07   1.74849e-06 DIIS
   @DF-RHF iter  11:   -95.20702646474595   -5.34865e-09   3.45360e-07 DIIS

  ==> Post-Iterations <==

    Orbital Energies (a.u.)
    -----------------------

    Doubly Occupied:                                                      

       1A    -15.533149     2A    -11.238100     3A     -1.170668  
       4A     -0.896163     5A     -0.664262     6A     -0.597369  
       7A     -0.565900     8A     -0.517942     9A     -0.379758  

    Virtual:                                                              

      10A      0.227000    11A      0.286863    12A      0.296207  
      13A      0.335433    14A      0.353442    15A      0.420835  
      16A      0.763638    17A      0.780333    18A      0.788353  
      19A      0.990247    20A      0.995145    21A      1.048255  
      22A      1.151283    23A      1.189462    24A      1.214271  
      25A      1.236869    26A      1.259048    27A      1.288156  
      28A      1.615258    29A      1.803910    30A      1.817425  
      31A      2.263247    32A      2.332339    33A      2.382172  
      34A      2.544357    35A      2.642618    36A      2.716876  
      37A      2.844573    38A      3.018816    39A      4.195281  
      40A      4.677088  

    Final Occupation by Irrep:
              A 
    DOCC [     9 ]

  Energy converged.

  @DF-RHF Final Energy:   -95.20702646474595

   => Energetics <=

    Nuclear Repulsion Energy =             42.3453240234580548
    One-Electron Energy =                -211.9780352882462466
    Two-Electron Energy =                  74.4256848000422053
    DFT Exchange-Correlation Energy =       0.0000000000000000
    Empirical Dispersion Energy =           0.0000000000000000
    PCM Polarization Energy =               0.0000000000000000
    EFP Energy =                            0.0000000000000000
    Total Energy =                        -95.2070264647459794

    Alert: EFP and PCM quantities not currently incorporated into SCF psivars.

Properties will be evaluated at   0.000000,   0.000000,   0.000000 Bohr
  ==> Properties <==


Properties computed using the SCF density matrix

  Nuclear Dipole Moment: (a.u.)
     X:     1.2115      Y:     0.4939      Z:    -0.5182

  Electronic Dipole Moment: (a.u.)
     X:    -0.9946      Y:    -0.1141      Z:     0.0694

  Dipole Moment: (a.u.)
     X:     0.2169      Y:     0.3798      Z:    -0.4488     Total:     0.6267

  Dipole Moment: (Debye)
     X:     0.5512      Y:     0.9652      Z:    -1.1408     Total:     1.5928


  Saving occupied orbitals to File 180.

*** tstop() called on cx1-3-15-2.cx1.hpc.ic.ac.uk at Tue Jul  5 16:21:03 2016
Module time:
	user time   =       1.29 seconds =       0.02 minutes
	system time =       0.02 seconds =       0.00 minutes
	total time  =          1 seconds =       0.02 minutes
Total time:
	user time   =       1.29 seconds =       0.02 minutes
	system time =       0.02 seconds =       0.00 minutes
	total time  =          1 seconds =       0.02 minutes


Properties will be evaluated at   0.000000,   0.000000,   0.000000 Bohr

Properties computed using the  density matrix

  Nuclear Dipole Moment: (a.u.)
     X:     1.2115      Y:     0.4939      Z:    -0.5182

  Electronic Dipole Moment: (a.u.)
     X:    -0.9946      Y:    -0.1141      Z:     0.0694

  Dipole Moment: (a.u.)
     X:     0.2169      Y:     0.3798      Z:    -0.4488     Total:     0.6267

  Dipole Moment: (Debye)
     X:     0.5512      Y:     0.9652      Z:    -1.1408     Total:     1.5928

  Quadrupole Moment: (Debye Ang)
    XX:   -14.4179     YY:   -13.5306     ZZ:   -13.4385
    XY:    -1.6385     XZ:     1.6641     YZ:     1.0047

  Traceless Quadrupole Moment: (Debye Ang)
    XX:    -0.6222     YY:     0.2651     ZZ:     0.3572
    XY:    -1.6385     XZ:     1.6641     YZ:     1.0047

  Mulliken Charges: (a.u.)
   Center  Symbol    Alpha    Beta     Spin     Total
       1     H     0.33367  0.33367  0.00000  0.33266
       2     N     3.91849  3.91849  0.00000 -0.83697
       3     C     3.14641  3.14641  0.00000 -0.29283
       4     H     0.33287  0.33287  0.00000  0.33426
       5     H     0.41919  0.41919  0.00000  0.16162
       6     H     0.43261  0.43261  0.00000  0.13479
       7     H     0.41676  0.41676  0.00000  0.16648

   Total alpha =  9.00000, Total beta =  9.00000, Total charge =  0.00000


*** PSI4 exiting successfully. Buy a developer a beer!
