    -----------------------------------------------------------------------
          Psi4: An Open-Source Ab Initio Electronic Structure Package
                              Psi4 (no tag) Driver

                          Git: Rev {detached?}  

    J. M. Turney, A. C. Simmonett, R. M. Parrish, E. G. Hohenstein,
    F. A. Evangelista, J. T. Fermann, B. J. Mintz, L. A. Burns, J. J. Wilke,
    M. L. Abrams, N. J. Russ, M. L. Leininger, C. L. Janssen, E. T. Seidl,
    W. D. Allen, H. F. Schaefer, R. A. King, E. F. Valeev, C. D. Sherrill,
    and T. D. Crawford, WIREs Comput. Mol. Sci. 2, 556-565 (2012)
    (doi: 10.1002/wcms.93)

                         Additional Contributions by
    A. E. DePrince, M. Saitow, U. Bozkaya, A. Yu. Sokolov
    -----------------------------------------------------------------------


    Psi4 started on: Tue Jul  5 16:46:22 2016

    Process ID:  28049
    PSI4DATADIR: /export131/home/mjharvey/miniconda3/share
    Memory level set to 256.000 MB

  ==> Input File <==

--------------------------------------------------------------------------
set {
	reference rhf
	basis 6-31G*
}


set_num_threads( 1 )
memory 2 gb

molecule MOL {
0 1

H	 -3.892951	 0.981613	 -0.358725
C	 -3.196921	 0.361773	 0.172313
C	 -2.076860	 -0.007332	 -0.404944
H	 -3.439953	 0.057760	 1.173024
O	 -1.180634	 -0.819263	 0.215062
H	 -1.811520	 0.292194	 -1.403480
C	 0.051604	 -1.018856	 -0.387932
C	 1.043764	 0.054862	 -0.001873
H	 -0.017620	 -1.041351	 -1.469781
H	 0.437898	 -1.966374	 -0.042284
F	 2.226173	 -0.227380	 -0.529182
F	 0.678188	 1.244730	 -0.449534
F	 1.192517	 0.145056	 1.303549

	symmetry c1
}
set optking {
	frozen_dihedral = ("
		3 5 7 9,
		6 3 2 1,
		6 3 5 7
	")
}

ee = energy('scf')
oeprop('DIPOLE', 'QUADRUPOLE', 'MULLIKEN_CHARGES')
f=open( 'psi4out.xyz', 'w' )
f.write( "13  " )
f.write( str(ee) + "\n" )
f.write( MOL.save_string_xyz() )
f.close()
--------------------------------------------------------------------------

  Memory set to   2.000 GiB by Python script.

*** tstart() called on cx1-3-14-4.cx1.hpc.ic.ac.uk
*** at Tue Jul  5 16:46:22 2016


         ---------------------------------------------------------
                                   SCF
            by Justin Turney, Rob Parrish, and Andy Simmonett
                              RHF Reference
                        1 Threads,   2000 MiB Core
         ---------------------------------------------------------

  ==> Geometry <==

    Molecular point group: c1
    Full point group: C1

    Geometry (in Angstrom), charge = 0, multiplicity = 1:

       Center              X                  Y                   Z               Mass       
    ------------   -----------------  -----------------  -----------------  -----------------
           H         -3.893082965035     0.981804176478    -0.358917703877     1.007825032070
           C         -3.197052965035     0.361964176478     0.172120296123    12.000000000000
           C         -2.076991965035    -0.007140823522    -0.405136703877    12.000000000000
           H         -3.440084965035     0.057951176478     1.172831296123     1.007825032070
           O         -1.180765965035    -0.819071823522     0.214869296123    15.994914619560
           H         -1.811651965035     0.292385176478    -1.403672703877     1.007825032070
           C          0.051472034965    -1.018664823522    -0.388124703877    12.000000000000
           C          1.043632034965     0.055053176478    -0.002065703877    12.000000000000
           H         -0.017751965035    -1.041159823522    -1.469973703877     1.007825032070
           H          0.437766034965    -1.966182823522    -0.042476703877     1.007825032070
           F          2.226041034965    -0.227188823522    -0.529374703877    18.998403224000
           F          0.678056034965     1.244921176478    -0.449726703877    18.998403224000
           F          1.192385034965     0.145247176478     1.303356296123    18.998403224000

  Running in c1 symmetry.

  Rotational constants: A =      0.14847  B =      0.03991  C =      0.03900 [cm^-1]
  Rotational constants: A =   4451.15887  B =   1196.45856  C =   1169.28376 [MHz]
  Nuclear repulsion =  413.492694457512073

  Charge       = 0
  Multiplicity = 1
  Electrons    = 64
  Nalpha       = 32
  Nbeta        = 32

  ==> Algorithm <==

  SCF Algorithm Type is DF.
  DIIS enabled.
  MOM disabled.
  Fractional occupation disabled.
  Guess Type is CORE.
  Energy threshold   = 1.00e-06
  Density threshold  = 1.00e-06
  Integral threshold = 0.00e+00

  ==> Primary Basis <==

  Basis Set: 6-31G*
    Number of shells: 58
    Number of basis function: 130
    Number of Cartesian functions: 130
    Spherical Harmonics?: false
    Max angular momentum: 2

  ==> Pre-Iterations <==

   -------------------------------------------------------
    Irrep   Nso     Nmo     Nalpha   Nbeta   Ndocc  Nsocc
   -------------------------------------------------------
     A        130     130       0       0       0       0
   -------------------------------------------------------
    Total     130     130      32      32      32       0
   -------------------------------------------------------

 OEINTS: Overlap, kinetic, potential, dipole, and quadrupole integrals
         stored in file 35.

  ==> Integral Setup <==

  ==> DFJK: Density-Fitted J/K Matrices <==

    J tasked:                  Yes
    K tasked:                  Yes
    wK tasked:                  No
    OpenMP threads:              1
    Integrals threads:           1
    Memory (MB):              1430
    Algorithm:                Core
    Integral Cache:           NONE
    Schwarz Cutoff:          1E-12
    Fitting Condition:       1E-12

   => Auxiliary Basis Set <=

  Basis Set: 
    Number of shells: 237
    Number of basis function: 773
    Number of Cartesian functions: 773
    Spherical Harmonics?: false
    Max angular momentum: 3

  Minimum eigenvalue in the overlap matrix is 1.8747505571E-03.
  Using Symmetric Orthogonalization.
  SCF Guess: Core (One-Electron) Hamiltonian.

  ==> Iterations <==

                           Total Energy        Delta E     RMS |[F,P]|

   @DF-RHF iter   1:  -439.77132904890408   -4.39771e+02   7.39618e-02 
   @DF-RHF iter   2:  -175.65958793997009    2.64112e+02   9.74707e-02 DIIS
   @DF-RHF iter   3:  -490.88722728221995   -3.15228e+02   3.97011e-02 DIIS
   @DF-RHF iter   4:  -404.58763872306184    8.62996e+01   7.72696e-02 DIIS
   @DF-RHF iter   5:  -519.23208298629993   -1.14644e+02   2.14585e-02 DIIS
   @DF-RHF iter   6:  -526.79642393697463   -7.56434e+00   1.02178e-02 DIIS
   @DF-RHF iter   7:  -527.48459326307079   -6.88169e-01   2.35968e-03 DIIS
   @DF-RHF iter   8:  -527.52207878009540   -3.74855e-02   1.12559e-03 DIIS
   @DF-RHF iter   9:  -527.53258387779692   -1.05051e-02   5.38998e-04 DIIS
   @DF-RHF iter  10:  -527.53503558406260   -2.45171e-03   2.67029e-04 DIIS
   @DF-RHF iter  11:  -527.53584455597456   -8.08972e-04   5.45672e-05 DIIS
   @DF-RHF iter  12:  -527.53587920526570   -3.46493e-05   1.94113e-05 DIIS
   @DF-RHF iter  13:  -527.53588569074532   -6.48548e-06   8.12057e-06 DIIS
   @DF-RHF iter  14:  -527.53588673127911   -1.04053e-06   2.07969e-06 DIIS
   @DF-RHF iter  15:  -527.53588683760563   -1.06327e-07   7.67987e-07 DIIS

  ==> Post-Iterations <==

    Orbital Energies (a.u.)
    -----------------------

    Doubly Occupied:                                                      

       1A    -26.344568     2A    -26.343778     3A    -26.340418  
       4A    -20.608438     5A    -11.503129     6A    -11.318944  
       7A    -11.299462     8A    -11.215871     9A     -1.741709  
      10A     -1.639879    11A     -1.638168    12A     -1.438319  
      13A     -1.084242    14A     -1.016523    15A     -0.925319  
      16A     -0.836450    17A     -0.830978    18A     -0.821229  
      19A     -0.792040    20A     -0.721692    21A     -0.711260  
      22A     -0.696551    23A     -0.675866    24A     -0.660327  
      25A     -0.654667    26A     -0.643061    27A     -0.634345  
      28A     -0.584639    29A     -0.563194    30A     -0.523954  
      31A     -0.514134    32A     -0.351529  

    Virtual:                                                              

      33A      0.190811    34A      0.235253    35A      0.272251  
      36A      0.280410    37A      0.296100    38A      0.314146  
      39A      0.344614    40A      0.412138    41A      0.414384  
      42A      0.453160    43A      0.475075    44A      0.507511  
      45A      0.515649    46A      0.689494    47A      0.700894  
      48A      0.711013    49A      0.741580    50A      0.755344  
      51A      0.770291    52A      0.807851    53A      0.832046  
      54A      0.877821    55A      0.911001    56A      0.923326  
      57A      0.980397    58A      1.080938    59A      1.099495  
      60A      1.129545    61A      1.150088    62A      1.161654  
      63A      1.203677    64A      1.238526    65A      1.276476  
      66A      1.330420    67A      1.360266    68A      1.367008  
      69A      1.410031    70A      1.427383    71A      1.452973  
      72A      1.472007    73A      1.592977    74A      1.613161  
      75A      1.630301    76A      1.638599    77A      1.663659  
      78A      1.674411    79A      1.692687    80A      1.697715  
      81A      1.747592    82A      1.801983    83A      1.851698  
      84A      1.907697    85A      1.947634    86A      1.958133  
      87A      2.015190    88A      2.031852    89A      2.110498  
      90A      2.120844    91A      2.141227    92A      2.147971  
      93A      2.229146    94A      2.248404    95A      2.283557  
      96A      2.294217    97A      2.317994    98A      2.325050  
      99A      2.369414   100A      2.398356   101A      2.413776  
     102A      2.424002   103A      2.498460   104A      2.526848  
     105A      2.557021   106A      2.591090   107A      2.650651  
     108A      2.671490   109A      2.740711   110A      2.823727  
     111A      2.851344   112A      2.900794   113A      2.994182  
     114A      3.100448   115A      3.146760   116A      3.178320  
     117A      3.225133   118A      3.293085   119A      3.414535  
     120A      3.428286   121A      3.445950   122A      3.479783  
     123A      4.360125   124A      4.542498   125A      4.620413  
     126A      4.703219   127A      4.903388   128A      4.941659  
     129A      5.129296   130A      5.743134  

    Final Occupation by Irrep:
              A 
    DOCC [    32 ]

  Energy converged.

  @DF-RHF Final Energy:  -527.53588683760563

   => Energetics <=

    Nuclear Repulsion Energy =            413.4926944575120729
    One-Electron Energy =               -1550.7076490651536460
    Two-Electron Energy =                 609.6790677700361130
    DFT Exchange-Correlation Energy =       0.0000000000000000
    Empirical Dispersion Energy =           0.0000000000000000
    PCM Polarization Energy =               0.0000000000000000
    EFP Energy =                            0.0000000000000000
    Total Energy =                       -527.5358868376055170

    Alert: EFP and PCM quantities not currently incorporated into SCF psivars.

Properties will be evaluated at   0.000000,   0.000000,   0.000000 Bohr
  ==> Properties <==


Properties computed using the SCF density matrix

  Nuclear Dipole Moment: (a.u.)
     X:   -12.0493      Y:    -2.6715      Z:    -2.2756

  Electronic Dipole Moment: (a.u.)
     X:    11.8031      Y:     2.2815      Z:     1.5801

  Dipole Moment: (a.u.)
     X:    -0.2463      Y:    -0.3900      Z:    -0.6955     Total:     0.8345

  Dipole Moment: (Debye)
     X:    -0.6259      Y:    -0.9912      Z:    -1.7678     Total:     2.1212


  Saving occupied orbitals to File 180.

*** tstop() called on cx1-3-14-4.cx1.hpc.ic.ac.uk at Tue Jul  5 16:46:32 2016
Module time:
	user time   =       9.43 seconds =       0.16 minutes
	system time =       0.06 seconds =       0.00 minutes
	total time  =         10 seconds =       0.17 minutes
Total time:
	user time   =       9.43 seconds =       0.16 minutes
	system time =       0.06 seconds =       0.00 minutes
	total time  =         10 seconds =       0.17 minutes


Properties will be evaluated at   0.000000,   0.000000,   0.000000 Bohr

Properties computed using the  density matrix

  Nuclear Dipole Moment: (a.u.)
     X:   -12.0493      Y:    -2.6715      Z:    -2.2756

  Electronic Dipole Moment: (a.u.)
     X:    11.8031      Y:     2.2815      Z:     1.5801

  Dipole Moment: (a.u.)
     X:    -0.2463      Y:    -0.3900      Z:    -0.6955     Total:     0.8345

  Dipole Moment: (Debye)
     X:    -0.6259      Y:    -0.9912      Z:    -1.7678     Total:     2.1212

  Quadrupole Moment: (Debye Ang)
    XX:   -45.8768     YY:   -44.3669     ZZ:   -43.3873
    XY:    -3.1357     XZ:     1.0251     YZ:     0.5186

  Traceless Quadrupole Moment: (Debye Ang)
    XX:    -1.3331     YY:     0.1767     ZZ:     1.1563
    XY:    -3.1357     XZ:     1.0251     YZ:     0.5186

  Mulliken Charges: (a.u.)
   Center  Symbol    Alpha    Beta     Spin     Total
       1     H     0.40705  0.40705  0.00000  0.18591
       2     C     3.23547  3.23547  0.00000 -0.47094
       3     C     2.89575  2.89575  0.00000  0.20849
       4     H     0.40176  0.40176  0.00000  0.19648
       5     O     4.30147  4.30147  0.00000 -0.60294
       6     H     0.40664  0.40664  0.00000  0.18672
       7     C     3.06386  3.06386  0.00000 -0.12772
       8     C     2.45586  2.45586  0.00000  1.08828
       9     H     0.40548  0.40548  0.00000  0.18904
      10     H     0.38979  0.38979  0.00000  0.22042
      11     F     4.68281  4.68281  0.00000 -0.36561
      12     F     4.67970  4.67970  0.00000 -0.35939
      13     F     4.67437  4.67437  0.00000 -0.34873

   Total alpha = 32.00000, Total beta = 32.00000, Total charge =  0.00000


*** PSI4 exiting successfully. Buy a developer a beer!
