    -----------------------------------------------------------------------
          Psi4: An Open-Source Ab Initio Electronic Structure Package
                              Psi4 (no tag) Driver

                          Git: Rev {detached?}  

    J. M. Turney, A. C. Simmonett, R. M. Parrish, E. G. Hohenstein,
    F. A. Evangelista, J. T. Fermann, B. J. Mintz, L. A. Burns, J. J. Wilke,
    M. L. Abrams, N. J. Russ, M. L. Leininger, C. L. Janssen, E. T. Seidl,
    W. D. Allen, H. F. Schaefer, R. A. King, E. F. Valeev, C. D. Sherrill,
    and T. D. Crawford, WIREs Comput. Mol. Sci. 2, 556-565 (2012)
    (doi: 10.1002/wcms.93)

                         Additional Contributions by
    A. E. DePrince, M. Saitow, U. Bozkaya, A. Yu. Sokolov
    -----------------------------------------------------------------------


    Psi4 started on: Tue Jul  5 16:37:58 2016

    Process ID:  15601
    PSI4DATADIR: /export131/home/mjharvey/miniconda3/share
    Memory level set to 256.000 MB

  ==> Input File <==

--------------------------------------------------------------------------
set {
	reference rhf
	basis 6-31G*
}


set_num_threads( 1 )
memory 2 gb

molecule MOL {
0 1

O	 0.968737	 -0.101610	 -0.705824
C	 0.028650	 0.075053	 -0.000277
C	 -1.233602	 -0.752807	 0.000328
O	 -0.033267	 1.047919	 0.899501
C	 -2.501530	 0.091881	 0.000126
H	 -1.193807	 -1.406641	 -0.865785
H	 -1.193516	 -1.405779	 0.867015
H	 -2.545121	 0.729328	 -0.874513
H	 -3.377167	 -0.548497	 0.000561
H	 -2.544818	 0.730135	 0.874258
C	 -0.359132	 2.341975	 0.425350
H	 0.376053	 2.680394	 -0.290463
H	 -0.358914	 2.982852	 1.293186
H	 -1.334308	 2.341692	 -0.039948

	symmetry c1
}
set optking {
	frozen_dihedral = ("
		4 2 3 6
	")
}

ee = energy('scf')
oeprop('DIPOLE', 'QUADRUPOLE', 'MULLIKEN_CHARGES')
f=open( 'psi4out.xyz', 'w' )
f.write( "14  " )
f.write( str(ee) + "\n" )
f.write( MOL.save_string_xyz() )
f.close()
--------------------------------------------------------------------------

  Memory set to   2.000 GiB by Python script.

*** tstart() called on cx1-1-4-4.cx1.hpc.ic.ac.uk
*** at Tue Jul  5 16:37:59 2016


         ---------------------------------------------------------
                                   SCF
            by Justin Turney, Rob Parrish, and Andy Simmonett
                              RHF Reference
                        1 Threads,   2000 MiB Core
         ---------------------------------------------------------

  ==> Geometry <==

    Molecular point group: c1
    Full point group: C1

    Geometry (in Angstrom), charge = 0, multiplicity = 1:

       Center              X                  Y                   Z               Mass       
    ------------   -----------------  -----------------  -----------------  -----------------
           O          1.492191567120    -0.582693825391    -0.810034955857    15.994914619560
           C          0.552104567120    -0.406030825391    -0.104487955857    12.000000000000
           C         -0.710147432880    -1.233890825391    -0.103882955857    12.000000000000
           O          0.490187567120     0.566835174609     0.795290044143    15.994914619560
           C         -1.978075432880    -0.389202825391    -0.104084955857    12.000000000000
           H         -0.670352432880    -1.887724825391    -0.969995955857     1.007825032070
           H         -0.670061432880    -1.886862825391     0.762804044143     1.007825032070
           H         -2.021666432880     0.248244174609    -0.978723955857     1.007825032070
           H         -2.853712432880    -1.029580825391    -0.103649955857     1.007825032070
           H         -2.021363432880     0.249051174609     0.770047044143     1.007825032070
           C          0.164322567120     1.860891174609     0.321139044143    12.000000000000
           H          0.899507567120     2.199310174609    -0.394673955857     1.007825032070
           H          0.164540567120     2.501768174609     1.188975044143     1.007825032070
           H         -0.810853432880     1.860608174609    -0.144158955857     1.007825032070

  Running in c1 symmetry.

  Rotational constants: A =      0.14811  B =      0.11903  C =      0.07541 [cm^-1]
  Rotational constants: A =   4440.20595  B =   3568.51736  C =   2260.88011 [MHz]
  Nuclear repulsion =  251.922698352306639

  Charge       = 0
  Multiplicity = 1
  Electrons    = 48
  Nalpha       = 24
  Nbeta        = 24

  ==> Algorithm <==

  SCF Algorithm Type is DF.
  DIIS enabled.
  MOM disabled.
  Fractional occupation disabled.
  Guess Type is CORE.
  Energy threshold   = 1.00e-06
  Density threshold  = 1.00e-06
  Integral threshold = 0.00e+00

  ==> Primary Basis <==

  Basis Set: 6-31G*
    Number of shells: 52
    Number of basis function: 106
    Number of Cartesian functions: 106
    Spherical Harmonics?: false
    Max angular momentum: 2

  ==> Pre-Iterations <==

   -------------------------------------------------------
    Irrep   Nso     Nmo     Nalpha   Nbeta   Ndocc  Nsocc
   -------------------------------------------------------
     A        106     106       0       0       0       0
   -------------------------------------------------------
    Total     106     106      24      24      24       0
   -------------------------------------------------------

 OEINTS: Overlap, kinetic, potential, dipole, and quadrupole integrals
         stored in file 35.

  ==> Integral Setup <==

  ==> DFJK: Density-Fitted J/K Matrices <==

    J tasked:                  Yes
    K tasked:                  Yes
    wK tasked:                  No
    OpenMP threads:              1
    Integrals threads:           1
    Memory (MB):              1430
    Algorithm:                Core
    Integral Cache:           NONE
    Schwarz Cutoff:          1E-12
    Fitting Condition:       1E-12

   => Auxiliary Basis Set <=

  Basis Set: 
    Number of shells: 216
    Number of basis function: 686
    Number of Cartesian functions: 686
    Spherical Harmonics?: false
    Max angular momentum: 3

  Minimum eigenvalue in the overlap matrix is 3.4958159145E-03.
  Using Symmetric Orthogonalization.
  SCF Guess: Core (One-Electron) Hamiltonian.

  ==> Iterations <==

                           Total Energy        Delta E     RMS |[F,P]|

   @DF-RHF iter   1:  -229.89671970090055   -2.29897e+02   8.68537e-02 
   @DF-RHF iter   2:  -205.85911116258885    2.40376e+01   6.87478e-02 DIIS
   @DF-RHF iter   3:  -275.20746956945754   -6.93484e+01   5.15722e-02 DIIS
   @DF-RHF iter   4:  -304.22739848851836   -2.90199e+01   1.73502e-02 DIIS
   @DF-RHF iter   5:  -305.55517556697316   -1.32778e+00   7.85590e-03 DIIS
   @DF-RHF iter   6:  -305.82495941467369   -2.69784e-01   1.77446e-03 DIIS
   @DF-RHF iter   7:  -305.84152297169919   -1.65636e-02   8.51645e-04 DIIS
   @DF-RHF iter   8:  -305.84548169240179   -3.95872e-03   1.43677e-04 DIIS
   @DF-RHF iter   9:  -305.84567014918332   -1.88457e-04   4.36637e-05 DIIS
   @DF-RHF iter  10:  -305.84569316522459   -2.30160e-05   1.31724e-05 DIIS
   @DF-RHF iter  11:  -305.84569598651944   -2.82129e-06   4.69896e-06 DIIS
   @DF-RHF iter  12:  -305.84569638690220   -4.00383e-07   1.92831e-06 DIIS
   @DF-RHF iter  13:  -305.84569646469959   -7.77974e-08   8.32215e-07 DIIS

  ==> Post-Iterations <==

    Orbital Energies (a.u.)
    -----------------------

    Doubly Occupied:                                                      

       1A    -20.587871     2A    -20.554200     3A    -11.373752  
       4A    -11.292324     5A    -11.239192     6A    -11.231600  
       7A     -1.464928     8A     -1.366616     9A     -1.068123  
      10A     -0.983637    11A     -0.892433    12A     -0.780297  
      13A     -0.702854    14A     -0.679952    15A     -0.668973  
      16A     -0.619702    17A     -0.603211    18A     -0.574939  
      19A     -0.562159    20A     -0.525505    21A     -0.516237  
      22A     -0.486304    23A     -0.457740    24A     -0.432201  

    Virtual:                                                              

      25A      0.172622    26A      0.233302    27A      0.262378  
      28A      0.278093    29A      0.293296    30A      0.308153  
      31A      0.314300    32A      0.329204    33A      0.338375  
      34A      0.360888    35A      0.401950    36A      0.436460  
      37A      0.515377    38A      0.577978    39A      0.703166  
      40A      0.736753    41A      0.744015    42A      0.760459  
      43A      0.779841    44A      0.797266    45A      0.854939  
      46A      0.899824    47A      0.911442    48A      0.957926  
      49A      0.973618    50A      1.015100    51A      1.059315  
      52A      1.119296    53A      1.126570    54A      1.140497  
      55A      1.145066    56A      1.157990    57A      1.200749  
      58A      1.212763    59A      1.230997    60A      1.254083  
      61A      1.273117    62A      1.284617    63A      1.358662  
      64A      1.375587    65A      1.406056    66A      1.466375  
      67A      1.594589    68A      1.651093    69A      1.684650  
      70A      1.729183    71A      1.791252    72A      1.873009  
      73A      1.943558    74A      2.017732    75A      2.033444  
      76A      2.062324    77A      2.085443    78A      2.165693  
      79A      2.230404    80A      2.231116    81A      2.268258  
      82A      2.327183    83A      2.372452    84A      2.395796  
      85A      2.458482    86A      2.491091    87A      2.544138  
      88A      2.601541    89A      2.646074    90A      2.688234  
      91A      2.703914    92A      2.794844    93A      2.839664  
      94A      2.915335    95A      2.979822    96A      3.186086  
      97A      3.218074    98A      3.306860    99A      3.381334  
     100A      3.493917   101A      4.374192   102A      4.534742  
     103A      4.641549   104A      4.705004   105A      4.790946  
     106A      4.961187  

    Final Occupation by Irrep:
              A 
    DOCC [    24 ]

  Energy converged.

  @DF-RHF Final Energy:  -305.84569646469959

   => Energetics <=

    Nuclear Repulsion Energy =            251.9226983523066394
    One-Electron Energy =                -916.2073350263610791
    Two-Electron Energy =                 358.4389402093544845
    DFT Exchange-Correlation Energy =       0.0000000000000000
    Empirical Dispersion Energy =           0.0000000000000000
    PCM Polarization Energy =               0.0000000000000000
    EFP Energy =                            0.0000000000000000
    Total Energy =                       -305.8456964646999836

    Alert: EFP and PCM quantities not currently incorporated into SCF psivars.

Properties will be evaluated at   0.000000,   0.000000,   0.000000 Bohr
  ==> Properties <==


Properties computed using the SCF density matrix

  Nuclear Dipole Moment: (a.u.)
     X:    -7.4752      Y:     2.1137      Z:     0.1224

  Electronic Dipole Moment: (a.u.)
     X:     6.2480      Y:    -1.6068      Z:     0.0926

  Dipole Moment: (a.u.)
     X:    -1.2272      Y:     0.5070      Z:     0.2150     Total:     1.3451

  Dipole Moment: (Debye)
     X:    -3.1192      Y:     1.2886      Z:     0.5464     Total:     3.4189


  Saving occupied orbitals to File 180.

*** tstop() called on cx1-1-4-4.cx1.hpc.ic.ac.uk at Tue Jul  5 16:38:05 2016
Module time:
	user time   =       5.72 seconds =       0.10 minutes
	system time =       0.04 seconds =       0.00 minutes
	total time  =          6 seconds =       0.10 minutes
Total time:
	user time   =       5.72 seconds =       0.10 minutes
	system time =       0.04 seconds =       0.00 minutes
	total time  =          6 seconds =       0.10 minutes


Properties will be evaluated at   0.000000,   0.000000,   0.000000 Bohr

Properties computed using the  density matrix

  Nuclear Dipole Moment: (a.u.)
     X:    -7.4752      Y:     2.1137      Z:     0.1224

  Electronic Dipole Moment: (a.u.)
     X:     6.2480      Y:    -1.6068      Z:     0.0926

  Dipole Moment: (a.u.)
     X:    -1.2272      Y:     0.5070      Z:     0.2150     Total:     1.3451

  Dipole Moment: (Debye)
     X:    -3.1192      Y:     1.2886      Z:     0.5464     Total:     3.4189

  Quadrupole Moment: (Debye Ang)
    XX:   -40.9517     YY:   -31.6177     ZZ:   -38.8220
    XY:     2.0078     XZ:     2.1075     YZ:    -1.2352

  Traceless Quadrupole Moment: (Debye Ang)
    XX:    -3.8212     YY:     5.5128     ZZ:    -1.6916
    XY:     2.0078     XZ:     2.1075     YZ:    -1.2352

  Mulliken Charges: (a.u.)
   Center  Symbol    Alpha    Beta     Spin     Total
       1     O     4.26020  4.26020  0.00000 -0.52039
       2     C     2.62283  2.62283  0.00000  0.75435
       3     C     3.19974  3.19974  0.00000 -0.39949
       4     O     4.30719  4.30719  0.00000 -0.61438
       5     C     3.25748  3.25748  0.00000 -0.51496
       6     H     0.40014  0.40014  0.00000  0.19973
       7     H     0.39959  0.39959  0.00000  0.20082
       8     H     0.41569  0.41569  0.00000  0.16861
       9     H     0.40849  0.40849  0.00000  0.18302
      10     H     0.40740  0.40740  0.00000  0.18520
      11     C     3.09507  3.09507  0.00000 -0.19015
      12     H     0.40535  0.40535  0.00000  0.18930
      13     H     0.40259  0.40259  0.00000  0.19483
      14     H     0.41823  0.41823  0.00000  0.16353

   Total alpha = 24.00000, Total beta = 24.00000, Total charge = -0.00000


*** PSI4 exiting successfully. Buy a developer a beer!
