    -----------------------------------------------------------------------
          Psi4: An Open-Source Ab Initio Electronic Structure Package
                              Psi4 (no tag) Driver

                          Git: Rev {detached?}  

    J. M. Turney, A. C. Simmonett, R. M. Parrish, E. G. Hohenstein,
    F. A. Evangelista, J. T. Fermann, B. J. Mintz, L. A. Burns, J. J. Wilke,
    M. L. Abrams, N. J. Russ, M. L. Leininger, C. L. Janssen, E. T. Seidl,
    W. D. Allen, H. F. Schaefer, R. A. King, E. F. Valeev, C. D. Sherrill,
    and T. D. Crawford, WIREs Comput. Mol. Sci. 2, 556-565 (2012)
    (doi: 10.1002/wcms.93)

                         Additional Contributions by
    A. E. DePrince, M. Saitow, U. Bozkaya, A. Yu. Sokolov
    -----------------------------------------------------------------------


    Psi4 started on: Tue Jul  5 17:17:05 2016

    Process ID:  19785
    PSI4DATADIR: /export131/home/mjharvey/miniconda3/share
    Memory level set to 256.000 MB

  ==> Input File <==

--------------------------------------------------------------------------
set {
	reference rhf
	basis 6-31G*
}


set_num_threads( 1 )
memory 2 gb

molecule MOL {
0 1

H	 7.733919	 -2.195380	 1.631486
C	 7.294279	 -2.330604	 0.648148
C	 6.334482	 -1.190397	 0.310668
H	 8.105160	 -2.383010	 -0.072316
H	 6.783889	 -3.289914	 0.642996
C	 5.690970	 -1.353752	 -1.068108
H	 6.870152	 -0.247488	 0.350449
H	 5.553978	 -1.141357	 1.068363
C	 5.126915	 -2.751751	 -1.322484
H	 4.895912	 -0.626143	 -1.186903
H	 6.433045	 -1.140054	 -1.834070
C	 3.873976	 -3.077168	 -0.522803
H	 4.859366	 -2.854455	 -2.373027
H	 5.879410	 -3.514501	 -1.135028
C	 3.475324	 -4.538016	 -0.405696
O	 3.213175	 -2.219545	 -0.018591
C	 3.142513	 -5.197708	 -1.752249
H	 2.617159	 -4.580256	 0.254215
H	 4.289374	 -5.081617	 0.070230
C	 3.906992	 -6.506058	 -1.962969
H	 2.073565	 -5.394231	 -1.800676
H	 3.371148	 -4.517137	 -2.568350
C	 3.584233	 -7.172245	 -3.299729
H	 3.675183	 -7.191428	 -1.151430
H	 4.975620	 -6.311267	 -1.903941
H	 2.526789	 -7.408725	 -3.374670
H	 3.837980	 -6.523738	 -4.133494
H	 4.139105	 -8.097216	 -3.419829

	symmetry c1
}
set optking {
	frozen_dihedral = ("
		10 6 3 2,
		16 12 15 17
	")
}

ee = energy('scf')
oeprop('DIPOLE', 'QUADRUPOLE', 'MULLIKEN_CHARGES')
f=open( 'psi4out.xyz', 'w' )
f.write( "28  " )
f.write( str(ee) + "\n" )
f.write( MOL.save_string_xyz() )
f.close()
--------------------------------------------------------------------------

  Memory set to   2.000 GiB by Python script.

*** tstart() called on cx1-3-4-4.cx1.hpc.ic.ac.uk
*** at Tue Jul  5 17:17:05 2016


         ---------------------------------------------------------
                                   SCF
            by Justin Turney, Rob Parrish, and Andy Simmonett
                              RHF Reference
                        1 Threads,   2000 MiB Core
         ---------------------------------------------------------

  ==> Geometry <==

    Molecular point group: c1
    Full point group: C1

    Geometry (in Angstrom), charge = 0, multiplicity = 1:

       Center              X                  Y                   Z               Mass       
    ------------   -----------------  -----------------  -----------------  -----------------
           H          3.161777138837     1.448875445331     2.573541963920     1.007825032070
           C          2.722137138837     1.313651445331     1.590203963920    12.000000000000
           C          1.762340138837     2.453858445331     1.252723963920    12.000000000000
           H          3.533018138837     1.261245445331     0.869739963920     1.007825032070
           H          2.211747138837     0.354341445331     1.585051963920     1.007825032070
           C          1.118828138837     2.290503445331    -0.126052036080    12.000000000000
           H          2.298010138837     3.396767445331     1.292504963920     1.007825032070
           H          0.981836138837     2.502898445331     2.010418963920     1.007825032070
           C          0.554773138837     0.892504445331    -0.380428036080    12.000000000000
           H          0.323770138837     3.018112445331    -0.244847036080     1.007825032070
           H          1.860903138837     2.504201445331    -0.892014036080     1.007825032070
           C         -0.698165861163     0.567087445331     0.419252963920    12.000000000000
           H          0.287224138837     0.789800445331    -1.430971036080     1.007825032070
           H          1.307268138837     0.129754445331    -0.192972036080     1.007825032070
           C         -1.096817861163    -0.893760554669     0.536359963920    12.000000000000
           O         -1.358966861163     1.424710445331     0.923464963920    15.994914619560
           C         -1.429628861163    -1.553452554669    -0.810193036080    12.000000000000
           H         -1.954982861163    -0.936000554669     1.196270963920     1.007825032070
           H         -0.282767861163    -1.437361554669     1.012285963920     1.007825032070
           C         -0.665149861163    -2.861802554669    -1.020913036080    12.000000000000
           H         -2.498576861163    -1.749975554669    -0.858620036080     1.007825032070
           H         -1.200993861163    -0.872881554669    -1.626294036080     1.007825032070
           C         -0.987908861163    -3.527989554669    -2.357673036080    12.000000000000
           H         -0.896958861163    -3.547172554669    -0.209374036080     1.007825032070
           H          0.403478138837    -2.667011554669    -0.961885036080     1.007825032070
           H         -2.045352861163    -3.764469554669    -2.432614036080     1.007825032070
           H         -0.734161861163    -2.879482554669    -3.191438036080     1.007825032070
           H         -0.433036861163    -4.452960554669    -2.477773036080     1.007825032070

  Running in c1 symmetry.

  Rotational constants: A =      0.07307  B =      0.01807  C =      0.01646 [cm^-1]
  Rotational constants: A =   2190.51708  B =    541.73318  C =    493.60202 [MHz]
  Nuclear repulsion =  545.993227255108764

  Charge       = 0
  Multiplicity = 1
  Electrons    = 80
  Nalpha       = 40
  Nbeta        = 40

  ==> Algorithm <==

  SCF Algorithm Type is DF.
  DIIS enabled.
  MOM disabled.
  Fractional occupation disabled.
  Guess Type is CORE.
  Energy threshold   = 1.00e-06
  Density threshold  = 1.00e-06
  Integral threshold = 0.00e+00

  ==> Primary Basis <==

  Basis Set: 6-31G*
    Number of shells: 96
    Number of basis function: 186
    Number of Cartesian functions: 186
    Spherical Harmonics?: false
    Max angular momentum: 2

  ==> Pre-Iterations <==

   -------------------------------------------------------
    Irrep   Nso     Nmo     Nalpha   Nbeta   Ndocc  Nsocc
   -------------------------------------------------------
     A        186     186       0       0       0       0
   -------------------------------------------------------
    Total     186     186      40      40      40       0
   -------------------------------------------------------

 OEINTS: Overlap, kinetic, potential, dipole, and quadrupole integrals
         stored in file 35.

  ==> Integral Setup <==

  ==> DFJK: Density-Fitted J/K Matrices <==

    J tasked:                  Yes
    K tasked:                  Yes
    wK tasked:                  No
    OpenMP threads:              1
    Integrals threads:           1
    Memory (MB):              1430
    Algorithm:                Core
    Integral Cache:           NONE
    Schwarz Cutoff:          1E-12
    Fitting Condition:       1E-12

   => Auxiliary Basis Set <=

  Basis Set: 
    Number of shells: 402
    Number of basis function: 1260
    Number of Cartesian functions: 1260
    Spherical Harmonics?: false
    Max angular momentum: 3

  Minimum eigenvalue in the overlap matrix is 3.2783518698E-03.
  Using Symmetric Orthogonalization.
  SCF Guess: Core (One-Electron) Hamiltonian.

  ==> Iterations <==

                           Total Energy        Delta E     RMS |[F,P]|

   @DF-RHF iter   1:  -245.70587650074651   -2.45706e+02   6.87727e-02 
   @DF-RHF iter   2:  -133.87716620954336    1.11829e+02   6.91439e-02 DIIS
   @DF-RHF iter   3:  -346.14180414575083   -2.12265e+02   4.25670e-02 DIIS
   @DF-RHF iter   4:  -234.76923485935163    1.11373e+02   6.43633e-02 DIIS
   @DF-RHF iter   5:  -416.65611711791723   -1.81887e+02   1.76711e-02 DIIS
   @DF-RHF iter   6:  -410.59251395115814    6.06360e+00   2.38812e-02 DIIS
   @DF-RHF iter   7:  -425.55497894761254   -1.49625e+01   5.91061e-03 DIIS
   @DF-RHF iter   8:  -426.02385665906820   -4.68878e-01   2.77815e-03 DIIS
   @DF-RHF iter   9:  -426.14786949700624   -1.24013e-01   5.74785e-04 DIIS
   @DF-RHF iter  10:  -426.15739289921851   -9.52340e-03   2.04269e-04 DIIS
   @DF-RHF iter  11:  -426.15849938217036   -1.10648e-03   8.09452e-05 DIIS
   @DF-RHF iter  12:  -426.15871284951572   -2.13467e-04   2.81103e-05 DIIS
   @DF-RHF iter  13:  -426.15873827975850   -2.54302e-05   8.80530e-06 DIIS
   @DF-RHF iter  14:  -426.15874113899736   -2.85924e-06   3.17861e-06 DIIS
   @DF-RHF iter  15:  -426.15874152702315   -3.88026e-07   8.95061e-07 DIIS

  ==> Post-Iterations <==

    Orbital Energies (a.u.)
    -----------------------

    Doubly Occupied:                                                      

       1A    -20.547966     2A    -11.321855     3A    -11.231086  
       4A    -11.228678     5A    -11.227270     6A    -11.227114  
       7A    -11.216836     8A    -11.216570     9A    -11.212645  
      10A    -11.210327    11A     -1.393015    12A     -1.096882  
      13A     -1.080404    14A     -1.020713    15A     -0.987748  
      16A     -0.911921    17A     -0.882195    18A     -0.811576  
      19A     -0.793395    20A     -0.718700    21A     -0.665327  
      22A     -0.654118    23A     -0.643761    24A     -0.615409  
      25A     -0.610998    26A     -0.598370    27A     -0.577445  
      28A     -0.559672    29A     -0.542486    30A     -0.537601  
      31A     -0.530361    32A     -0.518335    33A     -0.496607  
      34A     -0.482863    35A     -0.478100    36A     -0.473546  
      37A     -0.467259    38A     -0.463393    39A     -0.457458  
      40A     -0.391721  

    Virtual:                                                              

      41A      0.167771    42A      0.210519    43A      0.227284  
      44A      0.248156    45A      0.264770    46A      0.266688  
      47A      0.289588    48A      0.292552    49A      0.300719  
      50A      0.309049    51A      0.313097    52A      0.320973  
      53A      0.330321    54A      0.336459    55A      0.344814  
      56A      0.359568    57A      0.370494    58A      0.374332  
      59A      0.381286    60A      0.401250    61A      0.404383  
      62A      0.419350    63A      0.430541    64A      0.438712  
      65A      0.452107    66A      0.470954    67A      0.517902  
      68A      0.539918    69A      0.688027    70A      0.713466  
      71A      0.722073    72A      0.729835    73A      0.737307  
      74A      0.743149    75A      0.747237    76A      0.758768  
      77A      0.813810    78A      0.839008    79A      0.855779  
      80A      0.863086    81A      0.884705    82A      0.922380  
      83A      0.931930    84A      0.941363    85A      0.945038  
      86A      0.955063    87A      0.982334    88A      0.997013  
      89A      1.003492    90A      1.049689    91A      1.056548  
      92A      1.077682    93A      1.101035    94A      1.114331  
      95A      1.126216    96A      1.133101    97A      1.137435  
      98A      1.156260    99A      1.165755   100A      1.172286  
     101A      1.174786   102A      1.185629   103A      1.190323  
     104A      1.201646   105A      1.207654   106A      1.226720  
     107A      1.233104   108A      1.236786   109A      1.245401  
     110A      1.260280   111A      1.269367   112A      1.290318  
     113A      1.301426   114A      1.312222   115A      1.324632  
     116A      1.359456   117A      1.411214   118A      1.439565  
     119A      1.445555   120A      1.549755   121A      1.635565  
     122A      1.664938   123A      1.686276   124A      1.740231  
     125A      1.772750   126A      1.782217   127A      1.822682  
     128A      1.868099   129A      1.891835   130A      1.920665  
     131A      1.963554   132A      1.999319   133A      2.018582  
     134A      2.093701   135A      2.106124   136A      2.115942  
     137A      2.121811   138A      2.155706   139A      2.171240  
     140A      2.211409   141A      2.220074   142A      2.243520  
     143A      2.272000   144A      2.288257   145A      2.296992  
     146A      2.323007   147A      2.345671   148A      2.376142  
     149A      2.386853   150A      2.411890   151A      2.451024  
     152A      2.486901   153A      2.521487   154A      2.552577  
     155A      2.611948   156A      2.631717   157A      2.644682  
     158A      2.681163   159A      2.687840   160A      2.704959  
     161A      2.716015   162A      2.737060   163A      2.777534  
     164A      2.791687   165A      2.804573   166A      2.860809  
     167A      2.920675   168A      2.934794   169A      2.958758  
     170A      2.997069   171A      3.041316   172A      3.077981  
     173A      3.107792   174A      3.207302   175A      3.389970  
     176A      3.412806   177A      4.466597   178A      4.549310  
     179A      4.587209   180A      4.623425   181A      4.729614  
     182A      4.788184   183A      4.854866   184A      4.948987  
     185A      4.975473   186A      5.024485  

    Final Occupation by Irrep:
              A 
    DOCC [    40 ]

  Energy converged.

  @DF-RHF Final Energy:  -426.15874152702315

   => Energetics <=

    Nuclear Repulsion Energy =            545.9932272551087635
    One-Electron Energy =               -1660.1002499953251572
    Two-Electron Energy =                 687.9482812131927858
    DFT Exchange-Correlation Energy =       0.0000000000000000
    Empirical Dispersion Energy =           0.0000000000000000
    PCM Polarization Energy =               0.0000000000000000
    EFP Energy =                            0.0000000000000000
    Total Energy =                       -426.1587415270237216

    Alert: EFP and PCM quantities not currently incorporated into SCF psivars.

Properties will be evaluated at   0.000000,   0.000000,   0.000000 Bohr
  ==> Properties <==


Properties computed using the SCF density matrix

  Nuclear Dipole Moment: (a.u.)
     X:     5.9203      Y:    -6.4629      Z:    -3.7257

  Electronic Dipole Moment: (a.u.)
     X:    -5.3411      Y:     5.6222      Z:     3.1942

  Dipole Moment: (a.u.)
     X:     0.5792      Y:    -0.8408      Z:    -0.5315     Total:     1.1510

  Dipole Moment: (Debye)
     X:     1.4723      Y:    -2.1370      Z:    -1.3510     Total:     2.9257


  Saving occupied orbitals to File 180.

*** tstop() called on cx1-3-4-4.cx1.hpc.ic.ac.uk at Tue Jul  5 17:17:44 2016
Module time:
	user time   =      37.72 seconds =       0.63 minutes
	system time =       0.33 seconds =       0.01 minutes
	total time  =         39 seconds =       0.65 minutes
Total time:
	user time   =      37.72 seconds =       0.63 minutes
	system time =       0.33 seconds =       0.01 minutes
	total time  =         39 seconds =       0.65 minutes


Properties will be evaluated at   0.000000,   0.000000,   0.000000 Bohr

Properties computed using the  density matrix

  Nuclear Dipole Moment: (a.u.)
     X:     5.9203      Y:    -6.4629      Z:    -3.7257

  Electronic Dipole Moment: (a.u.)
     X:    -5.3411      Y:     5.6222      Z:     3.1942

  Dipole Moment: (a.u.)
     X:     0.5792      Y:    -0.8408      Z:    -0.5315     Total:     1.1510

  Dipole Moment: (Debye)
     X:     1.4723      Y:    -2.1370      Z:    -1.3510     Total:     2.9257

  Quadrupole Moment: (Debye Ang)
    XX:   -67.4950     YY:   -67.1534     ZZ:   -66.2367
    XY:     5.0516     XZ:     2.2089     YZ:    -2.6934

  Traceless Quadrupole Moment: (Debye Ang)
    XX:    -0.5333     YY:    -0.1917     ZZ:     0.7250
    XY:     5.0516     XZ:     2.2089     YZ:    -2.6934

  Mulliken Charges: (a.u.)
   Center  Symbol    Alpha    Beta     Spin     Total
       1     H     0.41664  0.41664  0.00000  0.16673
       2     C     3.24340  3.24340  0.00000 -0.48680
       3     C     3.15823  3.15823  0.00000 -0.31647
       4     H     0.42274  0.42274  0.00000  0.15452
       5     H     0.42614  0.42614  0.00000  0.14772
       6     C     3.14955  3.14955  0.00000 -0.29909
       7     H     0.41931  0.41931  0.00000  0.16138
       8     H     0.40902  0.40902  0.00000  0.18195
       9     C     3.21780  3.21780  0.00000 -0.43559
      10     H     0.40448  0.40448  0.00000  0.19103
      11     H     0.42199  0.42199  0.00000  0.15602
      12     C     2.73512  2.73512  0.00000  0.52975
      13     H     0.40273  0.40273  0.00000  0.19454
      14     H     0.40945  0.40945  0.00000  0.18110
      15     C     3.20327  3.20327  0.00000 -0.40653
      16     O     4.26592  4.26592  0.00000 -0.53184
      17     C     3.16239  3.16239  0.00000 -0.32477
      18     H     0.39768  0.39768  0.00000  0.20464
      19     H     0.41043  0.41043  0.00000  0.17914
      20     C     3.15549  3.15549  0.00000 -0.31098
      21     H     0.41081  0.41081  0.00000  0.17837
      22     H     0.41740  0.41740  0.00000  0.16520
      23     C     3.24073  3.24073  0.00000 -0.48146
      24     H     0.41915  0.41915  0.00000  0.16171
      25     H     0.42227  0.42227  0.00000  0.15545
      26     H     0.41967  0.41967  0.00000  0.16067
      27     H     0.42088  0.42088  0.00000  0.15824
      28     H     0.41731  0.41731  0.00000  0.16538

   Total alpha = 40.00000, Total beta = 40.00000, Total charge =  0.00000


*** PSI4 exiting successfully. Buy a developer a beer!
