    -----------------------------------------------------------------------
          Psi4: An Open-Source Ab Initio Electronic Structure Package
                              Psi4 (no tag) Driver

                          Git: Rev {detached?}  

    J. M. Turney, A. C. Simmonett, R. M. Parrish, E. G. Hohenstein,
    F. A. Evangelista, J. T. Fermann, B. J. Mintz, L. A. Burns, J. J. Wilke,
    M. L. Abrams, N. J. Russ, M. L. Leininger, C. L. Janssen, E. T. Seidl,
    W. D. Allen, H. F. Schaefer, R. A. King, E. F. Valeev, C. D. Sherrill,
    and T. D. Crawford, WIREs Comput. Mol. Sci. 2, 556-565 (2012)
    (doi: 10.1002/wcms.93)

                         Additional Contributions by
    A. E. DePrince, M. Saitow, U. Bozkaya, A. Yu. Sokolov
    -----------------------------------------------------------------------


    Psi4 started on: Tue Jul  5 16:42:56 2016

    Process ID:  28581
    PSI4DATADIR: /export131/home/mjharvey/miniconda3/share
    Memory level set to 256.000 MB

  ==> Input File <==

--------------------------------------------------------------------------
set {
	reference rhf
	basis 6-31G*
}


set_num_threads( 1 )
memory 2 gb

molecule MOL {
0 1

O	 0.719185	 0.918941	 1.832588
C	 -0.245068	 1.048580	 1.150180
C	 -1.180308	 2.226658	 1.192666
O	 -0.632575	 0.154573	 0.251549
H	 -2.181736	 1.890673	 1.435986
H	 -0.837853	 2.934943	 1.932188
H	 -1.220103	 2.697862	 0.217402
C	 0.160891	 -1.019931	 0.106212
C	 1.589627	 -0.672828	 0.480843
H	 0.089836	 -1.367806	 -0.916050
H	 -0.238459	 -1.792301	 0.749618
C	 2.246377	 0.346236	 -0.452210
H	 2.163194	 -1.597435	 0.473358
H	 1.604769	 -0.303424	 1.502885
C	 1.358904	 1.563499	 -0.708460
H	 3.190486	 0.671580	 -0.019882
H	 2.486927	 -0.133459	 -1.395284
H	 1.845995	 2.270083	 -1.372924
H	 1.128012	 2.084502	 0.216485
H	 0.418136	 1.272933	 -1.167378

	symmetry c1
}
set optking {
	frozen_dihedral = ("
		16 12 9 8,
		12 9 8 10,
		1 2 4 8
	")
}

ee = energy('scf')
oeprop('DIPOLE', 'QUADRUPOLE', 'MULLIKEN_CHARGES')
f=open( 'psi4out.xyz', 'w' )
f.write( "20  " )
f.write( str(ee) + "\n" )
f.write( MOL.save_string_xyz() )
f.close()
--------------------------------------------------------------------------

  Memory set to   2.000 GiB by Python script.

*** tstart() called on cx1-1-1-1.cx1.hpc.ic.ac.uk
*** at Tue Jul  5 16:42:57 2016


         ---------------------------------------------------------
                                   SCF
            by Justin Turney, Rob Parrish, and Andy Simmonett
                              RHF Reference
                        1 Threads,   2000 MiB Core
         ---------------------------------------------------------

  ==> Geometry <==

    Molecular point group: c1
    Full point group: C1

    Geometry (in Angstrom), charge = 0, multiplicity = 1:

       Center              X                  Y                   Z               Mass       
    ------------   -----------------  -----------------  -----------------  -----------------
           O          0.227594016213     0.335112417384     1.348146890406    15.994914619560
           C         -0.736658983787     0.464751417384     0.665738890406    12.000000000000
           C         -1.671898983787     1.642829417384     0.708224890406    12.000000000000
           O         -1.124165983787    -0.429255582616    -0.232892109594    15.994914619560
           H         -2.673326983787     1.306844417384     0.951544890406     1.007825032070
           H         -1.329443983787     2.351114417384     1.447746890406     1.007825032070
           H         -1.711693983787     2.114033417384    -0.267039109594     1.007825032070
           C         -0.330699983787    -1.603759582616    -0.378229109594    12.000000000000
           C          1.098036016213    -1.256656582616    -0.003598109594    12.000000000000
           H         -0.401754983787    -1.951634582616    -1.400491109594     1.007825032070
           H         -0.730049983787    -2.376129582616     0.265176890406     1.007825032070
           C          1.754786016213    -0.237592582616    -0.936651109594    12.000000000000
           H          1.671603016213    -2.181263582616    -0.011083109594     1.007825032070
           H          1.113178016213    -0.887252582616     1.018443890406     1.007825032070
           C          0.867313016213     0.979670417384    -1.192901109594    12.000000000000
           H          2.698895016213     0.087751417384    -0.504323109594     1.007825032070
           H          1.995336016213    -0.717287582616    -1.879725109594     1.007825032070
           H          1.354404016213     1.686254417384    -1.857365109594     1.007825032070
           H          0.636421016213     1.500673417384    -0.267956109594     1.007825032070
           H         -0.073454983787     0.689104417384    -1.651819109594     1.007825032070

  Running in c1 symmetry.

  Rotational constants: A =      0.10441  B =      0.06202  C =      0.05327 [cm^-1]
  Rotational constants: A =   3130.17893  B =   1859.31919  C =   1596.97759 [MHz]
  Nuclear repulsion =  431.466432271793167

  Charge       = 0
  Multiplicity = 1
  Electrons    = 64
  Nalpha       = 32
  Nbeta        = 32

  ==> Algorithm <==

  SCF Algorithm Type is DF.
  DIIS enabled.
  MOM disabled.
  Fractional occupation disabled.
  Guess Type is CORE.
  Energy threshold   = 1.00e-06
  Density threshold  = 1.00e-06
  Integral threshold = 0.00e+00

  ==> Primary Basis <==

  Basis Set: 6-31G*
    Number of shells: 72
    Number of basis function: 144
    Number of Cartesian functions: 144
    Spherical Harmonics?: false
    Max angular momentum: 2

  ==> Pre-Iterations <==

   -------------------------------------------------------
    Irrep   Nso     Nmo     Nalpha   Nbeta   Ndocc  Nsocc
   -------------------------------------------------------
     A        144     144       0       0       0       0
   -------------------------------------------------------
    Total     144     144      32      32      32       0
   -------------------------------------------------------

 OEINTS: Overlap, kinetic, potential, dipole, and quadrupole integrals
         stored in file 35.

  ==> Integral Setup <==

  ==> DFJK: Density-Fitted J/K Matrices <==

    J tasked:                  Yes
    K tasked:                  Yes
    wK tasked:                  No
    OpenMP threads:              1
    Integrals threads:           1
    Memory (MB):              1430
    Algorithm:                Core
    Integral Cache:           NONE
    Schwarz Cutoff:          1E-12
    Fitting Condition:       1E-12

   => Auxiliary Basis Set <=

  Basis Set: 
    Number of shells: 300
    Number of basis function: 948
    Number of Cartesian functions: 948
    Spherical Harmonics?: false
    Max angular momentum: 3

  Minimum eigenvalue in the overlap matrix is 2.8172024688E-03.
  Using Symmetric Orthogonalization.
  SCF Guess: Core (One-Electron) Hamiltonian.

  ==> Iterations <==

                           Total Energy        Delta E     RMS |[F,P]|

   @DF-RHF iter   1:  -273.46365394352932   -2.73464e+02   7.39687e-02 
   @DF-RHF iter   2:  -254.65771156267255    1.88059e+01   5.78158e-02 DIIS
   @DF-RHF iter   3:  -309.45036392217565   -5.47927e+01   5.55658e-02 DIIS
   @DF-RHF iter   4:  -359.03595181244856   -4.95856e+01   3.72298e-02 DIIS
   @DF-RHF iter   5:  -357.29563617529965    1.74032e+00   3.61946e-02 DIIS
   @DF-RHF iter   6:  -383.57343881730691   -2.62778e+01   4.83509e-03 DIIS
   @DF-RHF iter   7:  -383.81263723211435   -2.39198e-01   1.75710e-03 DIIS
   @DF-RHF iter   8:  -383.84249040021206   -2.98532e-02   7.36773e-04 DIIS
   @DF-RHF iter   9:  -383.84914310623338   -6.65271e-03   3.06074e-04 DIIS
   @DF-RHF iter  10:  -383.85019830717005   -1.05520e-03   1.00174e-04 DIIS
   @DF-RHF iter  11:  -383.85033705042969   -1.38743e-04   2.64691e-05 DIIS
   @DF-RHF iter  12:  -383.85034874223987   -1.16918e-05   1.06187e-05 DIIS
   @DF-RHF iter  13:  -383.85035029014915   -1.54791e-06   3.60109e-06 DIIS
   @DF-RHF iter  14:  -383.85035064464677   -3.54498e-07   1.43234e-06 DIIS
   @DF-RHF iter  15:  -383.85035073263731   -8.79905e-08   5.75596e-07 DIIS

  ==> Post-Iterations <==

    Orbital Energies (a.u.)
    -----------------------

    Doubly Occupied:                                                      

       1A    -20.603700     2A    -20.537744     3A    -11.387389  
       4A    -11.282087     5A    -11.237384     6A    -11.208039  
       7A    -11.195078     8A    -11.183775     9A     -1.482585  
      10A     -1.375714    11A     -1.076969    12A     -1.031769  
      13A     -0.972535    14A     -0.892276    15A     -0.811373  
      16A     -0.768786    17A     -0.708424    18A     -0.697469  
      19A     -0.664023    20A     -0.637750    21A     -0.597429  
      22A     -0.586032    23A     -0.570219    24A     -0.555061  
      25A     -0.543468    26A     -0.535754    27A     -0.514531  
      28A     -0.497487    29A     -0.462659    30A     -0.456098  
      31A     -0.427882    32A     -0.379292  

    Virtual:                                                              

      33A      0.181075    34A      0.241903    35A      0.253129  
      36A      0.288255    37A      0.291312    38A      0.299029  
      39A      0.309678    40A      0.316042    41A      0.331579  
      42A      0.345895    43A      0.350419    44A      0.358819  
      45A      0.375892    46A      0.395678    47A      0.417106  
      48A      0.426687    49A      0.451242    50A      0.471839  
      51A      0.541916    52A      0.581688    53A      0.706488  
      54A      0.729218    55A      0.738999    56A      0.751648  
      57A      0.765147    58A      0.783820    59A      0.809783  
      60A      0.825608    61A      0.861491    62A      0.910604  
      63A      0.918997    64A      0.939040    65A      0.963030  
      66A      0.972504    67A      1.010037    68A      1.047989  
      69A      1.068251    70A      1.114043    71A      1.131577  
      72A      1.138431    73A      1.145490    74A      1.156657  
      75A      1.174428    76A      1.188292    77A      1.197585  
      78A      1.210133    79A      1.227356    80A      1.238195  
      81A      1.243418    82A      1.256803    83A      1.287827  
      84A      1.315147    85A      1.324777    86A      1.362879  
      87A      1.407365    88A      1.488250    89A      1.511009  
      90A      1.552643    91A      1.606074    92A      1.643722  
      93A      1.734117    94A      1.744442    95A      1.769800  
      96A      1.819767    97A      1.862884    98A      1.892869  
      99A      1.921297   100A      1.996495   101A      2.029057  
     102A      2.076140   103A      2.117848   104A      2.147647  
     105A      2.166139   106A      2.203713   107A      2.252085  
     108A      2.262126   109A      2.287983   110A      2.292305  
     111A      2.353497   112A      2.363154   113A      2.415205  
     114A      2.431651   115A      2.454411   116A      2.506733  
     117A      2.570974   118A      2.600938   119A      2.619550  
     120A      2.655869   121A      2.703669   122A      2.711925  
     123A      2.721962   124A      2.770477   125A      2.791397  
     126A      2.830885   127A      2.859493   128A      2.920483  
     129A      3.014858   130A      3.042647   131A      3.048534  
     132A      3.116637   133A      3.219012   134A      3.391476  
     135A      3.428852   136A      3.556686   137A      4.529211  
     138A      4.584407   139A      4.621797   140A      4.725210  
     141A      4.763246   142A      4.879391   143A      4.938359  
     144A      5.068530  

    Final Occupation by Irrep:
              A 
    DOCC [    32 ]

  Energy converged.

  @DF-RHF Final Energy:  -383.85035073263731

   => Energetics <=

    Nuclear Repulsion Energy =            431.4664322717931668
    One-Electron Energy =               -1378.8720404636960666
    Two-Electron Energy =                 563.5552574592661585
    DFT Exchange-Correlation Energy =       0.0000000000000000
    Empirical Dispersion Energy =           0.0000000000000000
    PCM Polarization Energy =               0.0000000000000000
    EFP Energy =                            0.0000000000000000
    Total Energy =                       -383.8503507326367981

    Alert: EFP and PCM quantities not currently incorporated into SCF psivars.

Properties will be evaluated at   0.000000,   0.000000,   0.000000 Bohr
  ==> Properties <==


Properties computed using the SCF density matrix

  Nuclear Dipole Moment: (a.u.)
     X:     2.3863      Y:     1.5203      Z:    -3.8916

  Electronic Dipole Moment: (a.u.)
     X:    -2.9882      Y:    -1.5221      Z:     3.6035

  Dipole Moment: (a.u.)
     X:    -0.6019      Y:    -0.0018      Z:    -0.2881     Total:     0.6673

  Dipole Moment: (Debye)
     X:    -1.5299      Y:    -0.0046      Z:    -0.7324     Total:     1.6961


  Saving occupied orbitals to File 180.

*** tstop() called on cx1-1-1-1.cx1.hpc.ic.ac.uk at Tue Jul  5 16:43:14 2016
Module time:
	user time   =      16.56 seconds =       0.28 minutes
	system time =       0.16 seconds =       0.00 minutes
	total time  =         17 seconds =       0.28 minutes
Total time:
	user time   =      16.56 seconds =       0.28 minutes
	system time =       0.16 seconds =       0.00 minutes
	total time  =         17 seconds =       0.28 minutes


Properties will be evaluated at   0.000000,   0.000000,   0.000000 Bohr

Properties computed using the  density matrix

  Nuclear Dipole Moment: (a.u.)
     X:     2.3863      Y:     1.5203      Z:    -3.8916

  Electronic Dipole Moment: (a.u.)
     X:    -2.9882      Y:    -1.5221      Z:     3.6035

  Dipole Moment: (a.u.)
     X:    -0.6019      Y:    -0.0018      Z:    -0.2881     Total:     0.6673

  Dipole Moment: (Debye)
     X:    -1.5299      Y:    -0.0046      Z:    -0.7324     Total:     1.6961

  Quadrupole Moment: (Debye Ang)
    XX:   -49.9904     YY:   -46.4344     ZZ:   -52.7297
    XY:    -1.8185     XZ:    -2.4773     YZ:     0.7225

  Traceless Quadrupole Moment: (Debye Ang)
    XX:    -0.2722     YY:     3.2838     ZZ:    -3.0115
    XY:    -1.8185     XZ:    -2.4773     YZ:     0.7225

  Mulliken Charges: (a.u.)
   Center  Symbol    Alpha    Beta     Spin     Total
       1     O     4.29318  4.29318  0.00000 -0.58636
       2     C     2.62280  2.62280  0.00000  0.75440
       3     C     3.27674  3.27674  0.00000 -0.55349
       4     O     4.30817  4.30817  0.00000 -0.61634
       5     H     0.39769  0.39769  0.00000  0.20462
       6     H     0.39678  0.39678  0.00000  0.20644
       7     H     0.39750  0.39750  0.00000  0.20500
       8     C     3.00450  3.00450  0.00000 -0.00900
       9     C     3.21270  3.21270  0.00000 -0.42540
      10     H     0.40962  0.40962  0.00000  0.18077
      11     H     0.41031  0.41031  0.00000  0.17938
      12     C     3.13974  3.13974  0.00000 -0.27948
      13     H     0.42967  0.42967  0.00000  0.14067
      14     H     0.34938  0.34938  0.00000  0.30124
      15     C     3.27714  3.27714  0.00000 -0.55427
      16     H     0.41749  0.41749  0.00000  0.16502
      17     H     0.42462  0.42462  0.00000  0.15076
      18     H     0.41989  0.41989  0.00000  0.16022
      19     H     0.40464  0.40464  0.00000  0.19072
      20     H     0.40745  0.40745  0.00000  0.18509

   Total alpha = 32.00000, Total beta = 32.00000, Total charge = -0.00000


*** PSI4 exiting successfully. Buy a developer a beer!
