    -----------------------------------------------------------------------
          Psi4: An Open-Source Ab Initio Electronic Structure Package
                              Psi4 (no tag) Driver

                          Git: Rev {detached?}  

    J. M. Turney, A. C. Simmonett, R. M. Parrish, E. G. Hohenstein,
    F. A. Evangelista, J. T. Fermann, B. J. Mintz, L. A. Burns, J. J. Wilke,
    M. L. Abrams, N. J. Russ, M. L. Leininger, C. L. Janssen, E. T. Seidl,
    W. D. Allen, H. F. Schaefer, R. A. King, E. F. Valeev, C. D. Sherrill,
    and T. D. Crawford, WIREs Comput. Mol. Sci. 2, 556-565 (2012)
    (doi: 10.1002/wcms.93)

                         Additional Contributions by
    A. E. DePrince, M. Saitow, U. Bozkaya, A. Yu. Sokolov
    -----------------------------------------------------------------------


    Psi4 started on: Tue Jul  5 18:35:08 2016

    Process ID:   7553
    PSI4DATADIR: /export131/home/mjharvey/miniconda3/share
    Memory level set to 256.000 MB

  ==> Input File <==

--------------------------------------------------------------------------
set {
	reference rhf
	basis 6-31G*
}


set_num_threads( 1 )
memory 2 gb

molecule MOL {
0 1

H	 -2.577606	 0.247184	 1.509904
O	 -1.840915	 -0.185680	 1.103718
C	 -2.061112	 -1.573124	 1.079922
C	 -0.780577	 -2.382091	 0.905196
H	 -2.519254	 -1.814745	 2.030396
H	 -2.777306	 -1.831981	 0.300924
C	 0.360052	 -1.949202	 1.829556
H	 -1.009526	 -3.431019	 1.074601
H	 -0.460534	 -2.290600	 -0.131418
C	 0.905493	 -0.560396	 1.485275
H	 1.162926	 -2.678878	 1.771833
H	 0.009529	 -1.949437	 2.861774
C	 -0.164630	 0.514203	 1.260745
H	 1.581584	 -0.235659	 2.274131
H	 1.508638	 -0.639316	 0.583228
C	 -1.039260	 0.303749	 0.021709
H	 -0.807697	 0.544578	 2.137876
H	 0.313385	 1.490947	 1.203220
C	 -0.268884	 0.479689	 -1.288636
H	 -1.870747	 1.006720	 0.045604
H	 -1.479960	 -0.690125	 0.039084
C	 1.052661	 -0.287507	 -1.313005
H	 -0.891173	 0.152288	 -2.118727
H	 -0.074710	 1.537661	 -1.452575
H	 0.889409	 -1.353790	 -1.184110
H	 1.573719	 -0.144417	 -2.254630
H	 1.713204	 0.043168	 -0.516325

	symmetry c1
}
set optking {
	frozen_dihedral = ("
		14 10 7 4,
		14 10 13 16,
		10 7 4 8,
		8 4 3 2,
		10 13 16 20,
		20 16 19 22
	")
}

ee = energy('scf')
oeprop('DIPOLE', 'QUADRUPOLE', 'MULLIKEN_CHARGES')
f=open( 'psi4out.xyz', 'w' )
f.write( "27  " )
f.write( str(ee) + "\n" )
f.write( MOL.save_string_xyz() )
f.close()
--------------------------------------------------------------------------

  Memory set to   2.000 GiB by Python script.

*** tstart() called on cx1-3-4-2.cx1.hpc.ic.ac.uk
*** at Tue Jul  5 18:35:09 2016


         ---------------------------------------------------------
                                   SCF
            by Justin Turney, Rob Parrish, and Andy Simmonett
                              RHF Reference
                        1 Threads,   2000 MiB Core
         ---------------------------------------------------------

  ==> Geometry <==

    Molecular point group: c1
    Full point group: C1

    Geometry (in Angstrom), charge = 0, multiplicity = 1:

       Center              X                  Y                   Z               Mass       
    ------------   -----------------  -----------------  -----------------  -----------------
           H         -2.122994541176     0.866212119058     0.943866085238     1.007825032070
           O         -1.386303541176     0.433348119058     0.537680085238    15.994914619560
           C         -1.606500541176    -0.954095880942     0.513884085238    12.000000000000
           C         -0.325965541176    -1.763062880942     0.339158085238    12.000000000000
           H         -2.064642541176    -1.195716880942     1.464358085238     1.007825032070
           H         -2.322694541176    -1.212952880942    -0.265113914762     1.007825032070
           C          0.814663458824    -1.330173880942     1.263518085238    12.000000000000
           H         -0.554914541176    -2.811990880942     0.508563085238     1.007825032070
           H         -0.005922541176    -1.671571880942    -0.697455914762     1.007825032070
           C          1.360104458824     0.058632119058     0.919237085238    12.000000000000
           H          1.617537458824    -2.059849880942     1.205795085238     1.007825032070
           H          0.464140458824    -1.330408880942     2.295736085238     1.007825032070
           C          0.289981458824     1.133231119058     0.694707085238    12.000000000000
           H          2.036195458824     0.383369119058     1.708093085238     1.007825032070
           H          1.963249458824    -0.020287880942     0.017190085238     1.007825032070
           C         -0.584648541176     0.922777119058    -0.544328914762    12.000000000000
           H         -0.353085541176     1.163606119058     1.571838085238     1.007825032070
           H          0.767996458824     2.109975119058     0.637182085238     1.007825032070
           C          0.185727458824     1.098717119058    -1.854673914762    12.000000000000
           H         -1.416135541176     1.625748119058    -0.520433914762     1.007825032070
           H         -1.025348541176    -0.071096880942    -0.526953914762     1.007825032070
           C          1.507272458824     0.331521119058    -1.879042914762    12.000000000000
           H         -0.436561541176     0.771316119058    -2.684764914762     1.007825032070
           H          0.379901458824     2.156689119058    -2.018612914762     1.007825032070
           H          1.344020458824    -0.734761880942    -1.750147914762     1.007825032070
           H          2.028330458824     0.474611119058    -2.820667914762     1.007825032070
           H          2.167815458824     0.662196119058    -1.082362914762     1.007825032070

  Running in c1 symmetry.

  Rotational constants: A =      0.06937  B =      0.05039  C =      0.04229 [cm^-1]
  Rotational constants: A =   2079.80399  B =   1510.75938  C =   1267.72622 [MHz]
  Nuclear repulsion =  558.425006993556508

  Charge       = 0
  Multiplicity = 1
  Electrons    = 74
  Nalpha       = 37
  Nbeta        = 37

  ==> Algorithm <==

  SCF Algorithm Type is DF.
  DIIS enabled.
  MOM disabled.
  Fractional occupation disabled.
  Guess Type is CORE.
  Energy threshold   = 1.00e-06
  Density threshold  = 1.00e-06
  Integral threshold = 0.00e+00

  ==> Primary Basis <==

  Basis Set: 6-31G*
    Number of shells: 90
    Number of basis function: 171
    Number of Cartesian functions: 171
    Spherical Harmonics?: false
    Max angular momentum: 2

  ==> Pre-Iterations <==

   -------------------------------------------------------
    Irrep   Nso     Nmo     Nalpha   Nbeta   Ndocc  Nsocc
   -------------------------------------------------------
     A        171     171       0       0       0       0
   -------------------------------------------------------
    Total     171     171      37      37      37       0
   -------------------------------------------------------

 OEINTS: Overlap, kinetic, potential, dipole, and quadrupole integrals
         stored in file 35.

  ==> Integral Setup <==

  ==> DFJK: Density-Fitted J/K Matrices <==

    J tasked:                  Yes
    K tasked:                  Yes
    wK tasked:                  No
    OpenMP threads:              1
    Integrals threads:           1
    Memory (MB):              1430
    Algorithm:                Core
    Integral Cache:           NONE
    Schwarz Cutoff:          1E-12
    Fitting Condition:       1E-12

   => Auxiliary Basis Set <=

  Basis Set: 
    Number of shells: 378
    Number of basis function: 1179
    Number of Cartesian functions: 1179
    Spherical Harmonics?: false
    Max angular momentum: 3

  Minimum eigenvalue in the overlap matrix is 2.1853928479E-03.
  Using Symmetric Orthogonalization.
  SCF Guess: Core (One-Electron) Hamiltonian.

  ==> Iterations <==

                           Total Energy        Delta E     RMS |[F,P]|

   @DF-RHF iter   1:  -257.85328793282110   -2.57853e+02   7.11282e-02 
   @DF-RHF iter   2:  -154.96198002406197    1.02891e+02   6.57665e-02 DIIS
   @DF-RHF iter   3:  -296.33266725021349   -1.41371e+02   5.03722e-02 DIIS
   @DF-RHF iter   4:  -322.06252957114282   -2.57299e+01   5.25140e-02 DIIS
   @DF-RHF iter   5:  -386.58901188250468   -6.45265e+01   8.39497e-03 DIIS
   @DF-RHF iter   6:  -387.51151240579134   -9.22501e-01   3.41280e-03 DIIS
   @DF-RHF iter   7:  -387.67890019451102   -1.67388e-01   7.22164e-04 DIIS
   @DF-RHF iter   8:  -387.69121625947230   -1.23161e-02   2.47301e-04 DIIS
   @DF-RHF iter   9:  -387.69318539478866   -1.96914e-03   1.17337e-04 DIIS
   @DF-RHF iter  10:  -387.69362394865902   -4.38554e-04   4.15412e-05 DIIS
   @DF-RHF iter  11:  -387.69369993737246   -7.59887e-05   1.62023e-05 DIIS
   @DF-RHF iter  12:  -387.69371470541205   -1.47680e-05   5.80411e-06 DIIS
   @DF-RHF iter  13:  -387.69371602281433   -1.31740e-06   1.71701e-06 DIIS
   @DF-RHF iter  14:  -387.69371613986436   -1.17050e-07   6.09409e-07 DIIS

  ==> Post-Iterations <==

    Orbital Energies (a.u.)
    -----------------------

    Doubly Occupied:                                                      

       1A    -20.591991     2A    -11.296497     3A    -11.229404  
       4A    -11.216962     5A    -11.212834     6A    -11.193702  
       7A    -11.182787     8A    -11.181109     9A    -11.156433  
      10A     -1.536530    11A     -1.094419    12A     -1.084949  
      13A     -1.008566    14A     -0.974424    15A     -0.919889  
      16A     -0.880579    17A     -0.839145    18A     -0.791483  
      19A     -0.752684    20A     -0.686150    21A     -0.666600  
      22A     -0.625908    23A     -0.611811    24A     -0.586438  
      25A     -0.571100    26A     -0.567118    27A     -0.537901  
      28A     -0.520873    29A     -0.502009    30A     -0.494227  
      31A     -0.476556    32A     -0.464305    33A     -0.451448  
      34A     -0.422753    35A     -0.405524    36A     -0.367753  
      37A     -0.242102  

    Virtual:                                                              

      38A      0.208560    39A      0.235431    40A      0.261900  
      41A      0.265545    42A      0.282336    43A      0.289441  
      44A      0.291500    45A      0.299894    46A      0.322179  
      47A      0.329449    48A      0.337512    49A      0.345867  
      50A      0.357434    51A      0.360656    52A      0.370844  
      53A      0.382116    54A      0.391366    55A      0.410466  
      56A      0.430500    57A      0.431477    58A      0.443759  
      59A      0.455129    60A      0.478521    61A      0.492283  
      62A      0.546456    63A      0.581159    64A      0.718436  
      65A      0.721442    66A      0.728615    67A      0.758668  
      68A      0.764624    69A      0.771421    70A      0.802882  
      71A      0.831162    72A      0.861157    73A      0.900004  
      74A      0.921783    75A      0.927176    76A      0.947985  
      77A      0.965633    78A      0.981758    79A      0.998895  
      80A      1.014084    81A      1.036581    82A      1.064872  
      83A      1.074725    84A      1.099863    85A      1.129103  
      86A      1.135141    87A      1.147215    88A      1.157827  
      89A      1.167835    90A      1.177113    91A      1.189793  
      92A      1.193115    93A      1.217673    94A      1.221373  
      95A      1.228697    96A      1.242135    97A      1.249028  
      98A      1.258702    99A      1.269447   100A      1.279931  
     101A      1.300274   102A      1.314495   103A      1.356326  
     104A      1.363284   105A      1.404225   106A      1.411788  
     107A      1.467249   108A      1.518047   109A      1.536292  
     110A      1.635725   111A      1.659645   112A      1.712543  
     113A      1.747616   114A      1.758320   115A      1.795908  
     116A      1.819365   117A      1.870112   118A      1.925266  
     119A      1.933457   120A      1.973351   121A      2.008749  
     122A      2.060998   123A      2.067575   124A      2.175446  
     125A      2.207346   126A      2.211878   127A      2.245500  
     128A      2.262097   129A      2.275387   130A      2.305270  
     131A      2.344992   132A      2.354569   133A      2.369449  
     134A      2.383668   135A      2.408890   136A      2.454882  
     137A      2.510578   138A      2.545962   139A      2.576571  
     140A      2.584307   141A      2.624738   142A      2.675454  
     143A      2.693872   144A      2.705021   145A      2.720484  
     146A      2.727124   147A      2.753451   148A      2.764686  
     149A      2.791873   150A      2.809615   151A      2.817771  
     152A      2.871115   153A      2.931051   154A      2.991622  
     155A      3.019787   156A      3.022930   157A      3.058929  
     158A      3.105587   159A      3.139976   160A      3.173521  
     161A      3.300763   162A      3.601144   163A      4.555936  
     164A      4.655732   165A      4.757805   166A      4.781595  
     167A      4.860782   168A      4.947022   169A      4.980693  
     170A      5.099158   171A      5.194755  

    Final Occupation by Irrep:
              A 
    DOCC [    37 ]

  Energy converged.

  @DF-RHF Final Energy:  -387.69371613986436

   => Energetics <=

    Nuclear Repulsion Energy =            558.4250069935565080
    One-Electron Energy =               -1633.5477942628112942
    Two-Electron Energy =                 687.4290711293913319
    DFT Exchange-Correlation Energy =       0.0000000000000000
    Empirical Dispersion Energy =           0.0000000000000000
    PCM Polarization Energy =               0.0000000000000000
    EFP Energy =                            0.0000000000000000
    Total Energy =                       -387.6937161398634544

    Alert: EFP and PCM quantities not currently incorporated into SCF psivars.

Properties will be evaluated at   0.000000,   0.000000,   0.000000 Bohr
  ==> Properties <==


Properties computed using the SCF density matrix

  Nuclear Dipole Moment: (a.u.)
     X:     2.3060      Y:    -0.8369      Z:    -1.8854

  Electronic Dipole Moment: (a.u.)
     X:    -3.2207      Y:     0.0930      Z:     2.7240

  Dipole Moment: (a.u.)
     X:    -0.9148      Y:    -0.7438      Z:     0.8386     Total:     1.4468

  Dipole Moment: (Debye)
     X:    -2.3251      Y:    -1.8906      Z:     2.1315     Total:     3.6775


  Saving occupied orbitals to File 180.

*** tstop() called on cx1-3-4-2.cx1.hpc.ic.ac.uk at Tue Jul  5 18:35:42 2016
Module time:
	user time   =      32.18 seconds =       0.54 minutes
	system time =       0.27 seconds =       0.00 minutes
	total time  =         33 seconds =       0.55 minutes
Total time:
	user time   =      32.18 seconds =       0.54 minutes
	system time =       0.27 seconds =       0.00 minutes
	total time  =         33 seconds =       0.55 minutes


Properties will be evaluated at   0.000000,   0.000000,   0.000000 Bohr

Properties computed using the  density matrix

  Nuclear Dipole Moment: (a.u.)
     X:     2.3060      Y:    -0.8369      Z:    -1.8854

  Electronic Dipole Moment: (a.u.)
     X:    -3.2207      Y:     0.0930      Z:     2.7240

  Dipole Moment: (a.u.)
     X:    -0.9148      Y:    -0.7438      Z:     0.8386     Total:     1.4468

  Dipole Moment: (Debye)
     X:    -2.3251      Y:    -1.8906      Z:     2.1315     Total:     3.6775

  Quadrupole Moment: (Debye Ang)
    XX:   -56.3454     YY:   -61.5693     ZZ:   -63.9850
    XY:     0.0437     XZ:    -2.4309     YZ:     1.6736

  Traceless Quadrupole Moment: (Debye Ang)
    XX:     4.2878     YY:    -0.9361     ZZ:    -3.3517
    XY:     0.0437     XZ:    -2.4309     YZ:     1.6736

  Mulliken Charges: (a.u.)
   Center  Symbol    Alpha    Beta     Spin     Total
       1     H     0.32481  0.32481  0.00000  0.35037
       2     O     4.29783  4.29783  0.00000 -0.59566
       3     C     3.05160  3.05160  0.00000 -0.10320
       4     C     3.18031  3.18031  0.00000 -0.36062
       5     H     0.40579  0.40579  0.00000  0.18843
       6     H     0.39839  0.39839  0.00000  0.20323
       7     C     3.15288  3.15288  0.00000 -0.30576
       8     H     0.41334  0.41334  0.00000  0.17332
       9     H     0.39568  0.39568  0.00000  0.20864
      10     C     3.15065  3.15065  0.00000 -0.30131
      11     H     0.41584  0.41584  0.00000  0.16832
      12     H     0.42628  0.42628  0.00000  0.14744
      13     C     3.15437  3.15437  0.00000 -0.30873
      14     H     0.42398  0.42398  0.00000  0.15205
      15     H     0.41813  0.41813  0.00000  0.16374
      16     C     3.01046  3.01046  0.00000 -0.02091
      17     H     0.42620  0.42620  0.00000  0.14760
      18     H     0.43499  0.43499  0.00000  0.13002
      19     C     3.14278  3.14278  0.00000 -0.28555
      20     H     0.47548  0.47548  0.00000  0.04905
      21     H     0.49322  0.49322  0.00000  0.01355
      22     C     3.25491  3.25491  0.00000 -0.50982
      23     H     0.43938  0.43938  0.00000  0.12123
      24     H     0.44353  0.44353  0.00000  0.11294
      25     H     0.43092  0.43092  0.00000  0.13817
      26     H     0.42469  0.42469  0.00000  0.15061
      27     H     0.41356  0.41356  0.00000  0.17288

   Total alpha = 37.00000, Total beta = 37.00000, Total charge = -0.00000


*** PSI4 exiting successfully. Buy a developer a beer!
