    -----------------------------------------------------------------------
          Psi4: An Open-Source Ab Initio Electronic Structure Package
                              Psi4 (no tag) Driver

                          Git: Rev {detached?}  

    J. M. Turney, A. C. Simmonett, R. M. Parrish, E. G. Hohenstein,
    F. A. Evangelista, J. T. Fermann, B. J. Mintz, L. A. Burns, J. J. Wilke,
    M. L. Abrams, N. J. Russ, M. L. Leininger, C. L. Janssen, E. T. Seidl,
    W. D. Allen, H. F. Schaefer, R. A. King, E. F. Valeev, C. D. Sherrill,
    and T. D. Crawford, WIREs Comput. Mol. Sci. 2, 556-565 (2012)
    (doi: 10.1002/wcms.93)

                         Additional Contributions by
    A. E. DePrince, M. Saitow, U. Bozkaya, A. Yu. Sokolov
    -----------------------------------------------------------------------


    Psi4 started on: Tue Jul  5 16:23:03 2016

    Process ID:  25924
    PSI4DATADIR: /export131/home/mjharvey/miniconda3/share
    Memory level set to 256.000 MB

  ==> Input File <==

--------------------------------------------------------------------------
set {
	reference rhf
	basis 6-31G*
}


set_num_threads( 1 )
memory 2 gb

molecule MOL {
0 1

H	 -0.216825	 0.021369	 -3.357402
C	 0.374198	 0.036393	 -2.447010
C	 -0.521757	 -0.028637	 -1.217342
H	 0.969602	 0.942322	 -2.434777
H	 1.053364	 -0.811668	 -2.481329
N	 0.263400	 0.031178	 0.000000
H	 -1.199035	 0.820290	 -1.219355
H	 -1.147901	 -0.924895	 -1.265384
C	 -0.521757	 -0.028637	 1.217342
H	 0.935769	 -0.712709	 0.000000
C	 -0.318489	 1.224355	 2.058615
H	 -1.567643	 -0.108315	 0.935984
H	 -0.293578	 -0.915281	 1.816875
H	 -0.582891	 2.109247	 1.490793
H	 -0.929478	 1.191514	 2.955253
H	 0.718346	 1.322320	 2.370106

	symmetry c1
}
ee = energy('scf')
oeprop('DIPOLE', 'QUADRUPOLE', 'MULLIKEN_CHARGES')
f=open( 'psi4out.xyz', 'w' )
f.write( "16  " )
f.write( str(ee) + "\n" )
f.write( MOL.save_string_xyz() )
f.close()
--------------------------------------------------------------------------

  Memory set to   2.000 GiB by Python script.

*** tstart() called on cx1-3-1-3.cx1.hpc.ic.ac.uk
*** at Tue Jul  5 16:23:03 2016


         ---------------------------------------------------------
                                   SCF
            by Justin Turney, Rob Parrish, and Andy Simmonett
                              RHF Reference
                        1 Threads,   2000 MiB Core
         ---------------------------------------------------------

  ==> Geometry <==

    Molecular point group: c1
    Full point group: C1

    Geometry (in Angstrom), charge = 0, multiplicity = 1:

       Center              X                  Y                   Z               Mass       
    ------------   -----------------  -----------------  -----------------  -----------------
           H         -0.073941862295    -0.222653952247    -3.277235766553     1.007825032070
           C          0.517081137705    -0.207629952247    -2.366843766553    12.000000000000
           C         -0.378873862295    -0.272659952247    -1.137175766553    12.000000000000
           H          1.112485137705     0.698299047753    -2.354610766553     1.007825032070
           H          1.196247137705    -1.055690952247    -2.401162766553     1.007825032070
           N          0.406283137705    -0.212844952247     0.080166233447    14.003074004780
           H         -1.056151862295     0.576267047753    -1.139188766553     1.007825032070
           H         -1.005017862295    -1.168917952247    -1.185217766553     1.007825032070
           C         -0.378873862295    -0.272659952247     1.297508233447    12.000000000000
           H          1.078652137705    -0.956731952247     0.080166233447     1.007825032070
           C         -0.175605862295     0.980332047753     2.138781233447    12.000000000000
           H         -1.424759862295    -0.352337952247     1.016150233447     1.007825032070
           H         -0.150694862295    -1.159303952247     1.897041233447     1.007825032070
           H         -0.440007862295     1.865224047753     1.570959233447     1.007825032070
           H         -0.786594862295     0.947491047753     3.035419233447     1.007825032070
           H          0.861229137705     1.078297047753     2.450272233447     1.007825032070

  Running in c1 symmetry.

  Rotational constants: A =      0.50007  B =      0.07298  C =      0.07153 [cm^-1]
  Rotational constants: A =  14991.66819  B =   2187.90387  C =   2144.50845 [MHz]
  Nuclear repulsion =  190.003579608760560

  Charge       = 0
  Multiplicity = 1
  Electrons    = 42
  Nalpha       = 21
  Nbeta        = 21

  ==> Algorithm <==

  SCF Algorithm Type is DF.
  DIIS enabled.
  MOM disabled.
  Fractional occupation disabled.
  Guess Type is CORE.
  Energy threshold   = 1.00e-06
  Density threshold  = 1.00e-06
  Integral threshold = 0.00e+00

  ==> Primary Basis <==

  Basis Set: 6-31G*
    Number of shells: 52
    Number of basis function: 97
    Number of Cartesian functions: 97
    Spherical Harmonics?: false
    Max angular momentum: 2

  ==> Pre-Iterations <==

   -------------------------------------------------------
    Irrep   Nso     Nmo     Nalpha   Nbeta   Ndocc  Nsocc
   -------------------------------------------------------
     A         97      97       0       0       0       0
   -------------------------------------------------------
    Total      97      97      21      21      21       0
   -------------------------------------------------------

 OEINTS: Overlap, kinetic, potential, dipole, and quadrupole integrals
         stored in file 35.

  ==> Integral Setup <==

  ==> DFJK: Density-Fitted J/K Matrices <==

    J tasked:                  Yes
    K tasked:                  Yes
    wK tasked:                  No
    OpenMP threads:              1
    Integrals threads:           1
    Memory (MB):              1430
    Algorithm:                Core
    Integral Cache:           NONE
    Schwarz Cutoff:          1E-12
    Fitting Condition:       1E-12

   => Auxiliary Basis Set <=

  Basis Set: 
    Number of shells: 219
    Number of basis function: 680
    Number of Cartesian functions: 680
    Spherical Harmonics?: false
    Max angular momentum: 3

  Minimum eigenvalue in the overlap matrix is 4.5766672522E-03.
  Using Symmetric Orthogonalization.
  SCF Guess: Core (One-Electron) Hamiltonian.

  ==> Iterations <==

                           Total Energy        Delta E     RMS |[F,P]|

   @DF-RHF iter   1:  -150.66462088685660   -1.50665e+02   8.72033e-02 
   @DF-RHF iter   2:  -153.53701558762128   -2.87239e+00   5.66675e-02 DIIS
   @DF-RHF iter   3:  -176.35979604454229   -2.28228e+01   6.43625e-02 DIIS
   @DF-RHF iter   4:  -205.43034850470627   -2.90706e+01   2.71295e-02 DIIS
   @DF-RHF iter   5:  -211.88220315765994   -6.45185e+00   8.87445e-03 DIIS
   @DF-RHF iter   6:  -212.28288902369957   -4.00686e-01   2.21840e-03 DIIS
   @DF-RHF iter   7:  -212.30646328055832   -2.35743e-02   5.38362e-04 DIIS
   @DF-RHF iter   8:  -212.30820481789590   -1.74154e-03   2.10435e-04 DIIS
   @DF-RHF iter   9:  -212.30846528637642   -2.60468e-04   8.96737e-05 DIIS
   @DF-RHF iter  10:  -212.30851207920608   -4.67928e-05   1.89339e-05 DIIS
   @DF-RHF iter  11:  -212.30851486458465   -2.78538e-06   4.85374e-06 DIIS
   @DF-RHF iter  12:  -212.30851506393816   -1.99354e-07   1.48713e-06 DIIS
   @DF-RHF iter  13:  -212.30851508446335   -2.05252e-08   3.42348e-07 DIIS

  ==> Post-Iterations <==

    Orbital Energies (a.u.)
    -----------------------

    Doubly Occupied:                                                      

       1A    -15.532220     2A    -11.241943     3A    -11.239944  
       4A    -11.208445     5A    -11.199616     6A     -1.205263  
       7A     -1.025001     8A     -0.962668     9A     -0.836419  
      10A     -0.812627    11A     -0.666172    12A     -0.624271  
      13A     -0.610771    14A     -0.566499    15A     -0.553931  
      16A     -0.525846    17A     -0.504244    18A     -0.491781  
      19A     -0.480866    20A     -0.468812    21A     -0.357212  

    Virtual:                                                              

      22A      0.229566    23A      0.257090    24A      0.269861  
      25A      0.289437    26A      0.317635    27A      0.320472  
      28A      0.330879    29A      0.333022    30A      0.342246  
      31A      0.350845    32A      0.359070    33A      0.418576  
      34A      0.421325    35A      0.441433    36A      0.467810  
      37A      0.723887    38A      0.738578    39A      0.746553  
      40A      0.760317    41A      0.761789    42A      0.810933  
      43A      0.845409    44A      0.910655    45A      0.920414  
      46A      0.960539    47A      0.974631    48A      1.030953  
      49A      1.079823    50A      1.131799    51A      1.141881  
      52A      1.155207    53A      1.177036    54A      1.181834  
      55A      1.184895    56A      1.201046    57A      1.224239  
      58A      1.233022    59A      1.253248    60A      1.260805  
      61A      1.269703    62A      1.280681    63A      1.373313  
      64A      1.497905    65A      1.607301    66A      1.662850  
      67A      1.732834    68A      1.798963    69A      1.853413  
      70A      1.953455    71A      2.050497    72A      2.120672  
      73A      2.200866    74A      2.262696    75A      2.285400  
      76A      2.309391    77A      2.328383    78A      2.386241  
      79A      2.465799    80A      2.520782    81A      2.546557  
      82A      2.597205    83A      2.647896    84A      2.665874  
      85A      2.687143    86A      2.758226    87A      2.778325  
      88A      2.831369    89A      2.991630    90A      3.008434  
      91A      3.140360    92A      3.215374    93A      4.368909  
      94A      4.620309    95A      4.643956    96A      4.842293  
      97A      4.885190  

    Final Occupation by Irrep:
              A 
    DOCC [    21 ]

  Energy converged.

  @DF-RHF Final Energy:  -212.30851508446335

   => Energetics <=

    Nuclear Repulsion Energy =            190.0035796087605604
    One-Electron Energy =                -662.3949136018745776
    Two-Electron Energy =                 260.0828189086508360
    DFT Exchange-Correlation Energy =       0.0000000000000000
    Empirical Dispersion Energy =           0.0000000000000000
    PCM Polarization Energy =               0.0000000000000000
    EFP Energy =                            0.0000000000000000
    Total Energy =                       -212.3085150844631812

    Alert: EFP and PCM quantities not currently incorporated into SCF psivars.

Properties will be evaluated at   0.000000,   0.000000,   0.000000 Bohr
  ==> Properties <==


Properties computed using the SCF density matrix

  Nuclear Dipole Moment: (a.u.)
     X:    -0.6467      Y:     0.2349      Z:    -0.2884

  Electronic Dipole Moment: (a.u.)
     X:     0.4863      Y:    -0.6659      Z:     0.2438

  Dipole Moment: (a.u.)
     X:    -0.1604      Y:    -0.4309      Z:    -0.0447     Total:     0.4620

  Dipole Moment: (Debye)
     X:    -0.4077      Y:    -1.0953      Z:    -0.1135     Total:     1.1743


  Saving occupied orbitals to File 180.

*** tstop() called on cx1-3-1-3.cx1.hpc.ic.ac.uk at Tue Jul  5 16:23:08 2016
Module time:
	user time   =       4.97 seconds =       0.08 minutes
	system time =       0.04 seconds =       0.00 minutes
	total time  =          5 seconds =       0.08 minutes
Total time:
	user time   =       4.97 seconds =       0.08 minutes
	system time =       0.04 seconds =       0.00 minutes
	total time  =          5 seconds =       0.08 minutes


Properties will be evaluated at   0.000000,   0.000000,   0.000000 Bohr

Properties computed using the  density matrix

  Nuclear Dipole Moment: (a.u.)
     X:    -0.6467      Y:     0.2349      Z:    -0.2884

  Electronic Dipole Moment: (a.u.)
     X:     0.4863      Y:    -0.6659      Z:     0.2438

  Dipole Moment: (a.u.)
     X:    -0.1604      Y:    -0.4309      Z:    -0.0447     Total:     0.4620

  Dipole Moment: (Debye)
     X:    -0.4077      Y:    -1.0953      Z:    -0.1135     Total:     1.1743

  Quadrupole Moment: (Debye Ang)
    XX:   -34.1592     YY:   -33.8054     ZZ:   -33.7848
    XY:    -1.6406     XZ:     0.2939     YZ:    -0.6955

  Traceless Quadrupole Moment: (Debye Ang)
    XX:    -0.2427     YY:     0.1110     ZZ:     0.1317
    XY:    -1.6406     XZ:     0.2939     YZ:    -0.6955

  Mulliken Charges: (a.u.)
   Center  Symbol    Alpha    Beta     Spin     Total
       1     H     0.42021  0.42021  0.00000  0.15957
       2     C     3.24255  3.24255  0.00000 -0.48510
       3     C     3.05678  3.05678  0.00000 -0.11357
       4     H     0.41179  0.41179  0.00000  0.17642
       5     H     0.42479  0.42479  0.00000  0.15042
       6     N     3.84799  3.84799  0.00000 -0.69599
       7     H     0.41978  0.41978  0.00000  0.16043
       8     H     0.43464  0.43464  0.00000  0.13073
       9     C     3.06439  3.06439  0.00000 -0.12879
      10     H     0.33333  0.33333  0.00000  0.33335
      11     C     3.22505  3.22505  0.00000 -0.45010
      12     H     0.42426  0.42426  0.00000  0.15149
      13     H     0.42583  0.42583  0.00000  0.14835
      14     H     0.41962  0.41962  0.00000  0.16076
      15     H     0.42854  0.42854  0.00000  0.14291
      16     H     0.42045  0.42045  0.00000  0.15911

   Total alpha = 21.00000, Total beta = 21.00000, Total charge =  0.00000


*** PSI4 exiting successfully. Buy a developer a beer!
