    -----------------------------------------------------------------------
          Psi4: An Open-Source Ab Initio Electronic Structure Package
                              Psi4 (no tag) Driver

                          Git: Rev {detached?}  

    J. M. Turney, A. C. Simmonett, R. M. Parrish, E. G. Hohenstein,
    F. A. Evangelista, J. T. Fermann, B. J. Mintz, L. A. Burns, J. J. Wilke,
    M. L. Abrams, N. J. Russ, M. L. Leininger, C. L. Janssen, E. T. Seidl,
    W. D. Allen, H. F. Schaefer, R. A. King, E. F. Valeev, C. D. Sherrill,
    and T. D. Crawford, WIREs Comput. Mol. Sci. 2, 556-565 (2012)
    (doi: 10.1002/wcms.93)

                         Additional Contributions by
    A. E. DePrince, M. Saitow, U. Bozkaya, A. Yu. Sokolov
    -----------------------------------------------------------------------


    Psi4 started on: Tue Jul  5 16:33:51 2016

    Process ID:  22452
    PSI4DATADIR: /export131/home/mjharvey/miniconda3/share
    Memory level set to 256.000 MB

  ==> Input File <==

--------------------------------------------------------------------------
set {
	reference rhf
	basis 6-31G*
}


set_num_threads( 1 )
memory 2 gb

molecule MOL {
0 1

H	 -1.748661	 -2.220942	 -0.005015
C	 -1.343207	 -1.225221	 -0.013879
N	 -0.055091	 -1.100174	 -0.261126
C	 -2.150779	 -0.125890	 0.222726
C	 0.449969	 0.122615	 -0.277109
H	 -3.200618	 -0.238980	 0.422496
N	 -1.660212	 1.097703	 0.209594
C	 -0.371804	 1.219904	 -0.038265
C	 1.928147	 0.267347	 -0.541394
H	 0.029131	 2.217482	 -0.051283
C	 2.473515	 1.625420	 -0.087274
H	 2.447662	 -0.525013	 -0.013065
H	 2.122063	 0.127728	 -1.600204
H	 3.542280	 1.685835	 -0.266405
H	 2.297243	 1.771339	 0.972026
H	 1.996081	 2.438391	 -0.625275

	symmetry c1
}
ee = energy('scf')
oeprop('DIPOLE', 'QUADRUPOLE', 'MULLIKEN_CHARGES')
f=open( 'psi4out.xyz', 'w' )
f.write( "16  " )
f.write( str(ee) + "\n" )
f.write( MOL.save_string_xyz() )
f.close()
--------------------------------------------------------------------------

  Memory set to   2.000 GiB by Python script.

*** tstart() called on cx1-3-6-2.cx1.hpc.ic.ac.uk
*** at Tue Jul  5 16:33:52 2016


         ---------------------------------------------------------
                                   SCF
            by Justin Turney, Rob Parrish, and Andy Simmonett
                              RHF Reference
                        1 Threads,   2000 MiB Core
         ---------------------------------------------------------

  ==> Geometry <==

    Molecular point group: c1
    Full point group: C1

    Geometry (in Angstrom), charge = 0, multiplicity = 1:

       Center              X                  Y                   Z               Mass       
    ------------   -----------------  -----------------  -----------------  -----------------
           H         -1.705672900824    -2.478856207094     0.094179274405     1.007825032070
           C         -1.300218900824    -1.483135207094     0.085315274405    12.000000000000
           N         -0.012102900824    -1.358088207094    -0.161931725595    14.003074004780
           C         -2.107790900824    -0.383804207094     0.321920274405    12.000000000000
           C          0.492957099176    -0.135299207094    -0.177914725595    12.000000000000
           H         -3.157629900824    -0.496894207094     0.521690274405     1.007825032070
           N         -1.617223900824     0.839788792906     0.308788274405    14.003074004780
           C         -0.328815900824     0.961989792906     0.060929274405    12.000000000000
           C          1.971135099176     0.009432792906    -0.442199725595    12.000000000000
           H          0.072119099176     1.959567792906     0.047911274405     1.007825032070
           C          2.516503099176     1.367505792906     0.011920274405    12.000000000000
           H          2.490650099176    -0.782927207094     0.086129274405     1.007825032070
           H          2.165051099176    -0.130186207094    -1.501009725595     1.007825032070
           H          3.585268099176     1.427920792906    -0.167210725595     1.007825032070
           H          2.340231099176     1.513424792906     1.071220274405     1.007825032070
           H          2.039069099176     2.180476792906    -0.526080725595     1.007825032070

  Running in c1 symmetry.

  Rotational constants: A =      0.16754  B =      0.05348  C =      0.04145 [cm^-1]
  Rotational constants: A =   5022.70361  B =   1603.39068  C =   1242.65855 [MHz]
  Nuclear repulsion =  350.532199472304171

  Charge       = 0
  Multiplicity = 1
  Electrons    = 58
  Nalpha       = 29
  Nbeta        = 29

  ==> Algorithm <==

  SCF Algorithm Type is DF.
  DIIS enabled.
  MOM disabled.
  Fractional occupation disabled.
  Guess Type is CORE.
  Energy threshold   = 1.00e-06
  Density threshold  = 1.00e-06
  Integral threshold = 0.00e+00

  ==> Primary Basis <==

  Basis Set: 6-31G*
    Number of shells: 64
    Number of basis function: 136
    Number of Cartesian functions: 136
    Spherical Harmonics?: false
    Max angular momentum: 2

  ==> Pre-Iterations <==

   -------------------------------------------------------
    Irrep   Nso     Nmo     Nalpha   Nbeta   Ndocc  Nsocc
   -------------------------------------------------------
     A        136     136       0       0       0       0
   -------------------------------------------------------
    Total     136     136      29      29      29       0
   -------------------------------------------------------

 OEINTS: Overlap, kinetic, potential, dipole, and quadrupole integrals
         stored in file 35.

  ==> Integral Setup <==

  ==> DFJK: Density-Fitted J/K Matrices <==

    J tasked:                  Yes
    K tasked:                  Yes
    wK tasked:                  No
    OpenMP threads:              1
    Integrals threads:           1
    Memory (MB):              1430
    Algorithm:                Core
    Integral Cache:           NONE
    Schwarz Cutoff:          1E-12
    Fitting Condition:       1E-12

   => Auxiliary Basis Set <=

  Basis Set: 
    Number of shells: 264
    Number of basis function: 848
    Number of Cartesian functions: 848
    Spherical Harmonics?: false
    Max angular momentum: 3

  Minimum eigenvalue in the overlap matrix is 1.1683138522E-03.
  Using Symmetric Orthogonalization.
  SCF Guess: Core (One-Electron) Hamiltonian.

  ==> Iterations <==

                           Total Energy        Delta E     RMS |[F,P]|

   @DF-RHF iter   1:  -251.53285921708726   -2.51533e+02   6.98695e-02 
   @DF-RHF iter   2:  -127.71502799820740    1.23818e+02   8.12509e-02 DIIS
   @DF-RHF iter   3:  -227.81278927082855   -1.00098e+02   7.09722e-02 DIIS
   @DF-RHF iter   4:  -291.18778542944398   -6.33750e+01   5.32936e-02 DIIS
   @DF-RHF iter   5:  -327.18988285595782   -3.60021e+01   2.66886e-02 DIIS
   @DF-RHF iter   6:  -335.60749617673360   -8.41761e+00   1.87766e-02 DIIS
   @DF-RHF iter   7:  -340.16086464994174   -4.55337e+00   7.51028e-03 DIIS
   @DF-RHF iter   8:  -340.66058717745108   -4.99723e-01   2.85792e-03 DIIS
   @DF-RHF iter   9:  -340.74027098698906   -7.96838e-02   9.93660e-04 DIIS
   @DF-RHF iter  10:  -340.75209588549097   -1.18249e-02   3.66189e-04 DIIS
   @DF-RHF iter  11:  -340.75426279670177   -2.16691e-03   1.11253e-04 DIIS
   @DF-RHF iter  12:  -340.75446648976657   -2.03693e-04   5.69235e-05 DIIS
   @DF-RHF iter  13:  -340.75452855098405   -6.20612e-05   3.28408e-05 DIIS
   @DF-RHF iter  14:  -340.75455347624660   -2.49253e-05   9.66571e-06 DIIS
   @DF-RHF iter  15:  -340.75455711958722   -3.64334e-06   2.73261e-06 DIIS
   @DF-RHF iter  16:  -340.75455749259737   -3.73010e-07   1.27145e-06 DIIS
   @DF-RHF iter  17:  -340.75455756305445   -7.04571e-08   3.58429e-07 DIIS

  ==> Post-Iterations <==

    Orbital Energies (a.u.)
    -----------------------

    Doubly Occupied:                                                      

       1A    -15.586004     2A    -15.581381     3A    -11.280975  
       4A    -11.275668     5A    -11.271408     6A    -11.270031  
       7A    -11.233452     8A    -11.223193     9A     -1.312597  
      10A     -1.220930    11A     -1.088263    12A     -1.013755  
      13A     -0.907718    14A     -0.891545    15A     -0.830177  
      16A     -0.715796    17A     -0.708052    18A     -0.652626  
      19A     -0.630529    20A     -0.612675    21A     -0.567883  
      22A     -0.561568    23A     -0.517169    24A     -0.514645  
      25A     -0.507252    26A     -0.483343    27A     -0.427423  
      28A     -0.393938    29A     -0.345020  

    Virtual:                                                              

      30A      0.104120    31A      0.136130    32A      0.239530  
      33A      0.272649    34A      0.276020    35A      0.296545  
      36A      0.312648    37A      0.315903    38A      0.324796  
      39A      0.350460    40A      0.373093    41A      0.394316  
      42A      0.401068    43A      0.428502    44A      0.509813  
      45A      0.517285    46A      0.563675    47A      0.628546  
      48A      0.663021    49A      0.718736    50A      0.725246  
      51A      0.726781    52A      0.749798    53A      0.779814  
      54A      0.785748    55A      0.813226    56A      0.832279  
      57A      0.849986    58A      0.868668    59A      0.903520  
      60A      0.914520    61A      0.944183    62A      0.970794  
      63A      0.994894    64A      1.045452    65A      1.067569  
      66A      1.083251    67A      1.091967    68A      1.106563  
      69A      1.113578    70A      1.114874    71A      1.146463  
      72A      1.154606    73A      1.159702    74A      1.183736  
      75A      1.213349    76A      1.218892    77A      1.247987  
      78A      1.261423    79A      1.269105    80A      1.315052  
      81A      1.373607    82A      1.427999    83A      1.478412  
      84A      1.514863    85A      1.530294    86A      1.621672  
      87A      1.676460    88A      1.710341    89A      1.753391  
      90A      1.775239    91A      1.788171    92A      1.797584  
      93A      1.887193    94A      1.918497    95A      2.012299  
      96A      2.092895    97A      2.110916    98A      2.124124  
      99A      2.144098   100A      2.174857   101A      2.246189  
     102A      2.278395   103A      2.297090   104A      2.339708  
     105A      2.423236   106A      2.475452   107A      2.504497  
     108A      2.550247   109A      2.574690   110A      2.605426  
     111A      2.639247   112A      2.650518   113A      2.686619  
     114A      2.690562   115A      2.713581   116A      2.718734  
     117A      2.826923   118A      2.868051   119A      2.904590  
     120A      2.937088   121A      3.016454   122A      3.104294  
     123A      3.137222   124A      3.189254   125A      3.225078  
     126A      3.282125   127A      3.513929   128A      3.846234  
     129A      4.378533   130A      4.505763   131A      4.557656  
     132A      4.645947   133A      4.709927   134A      4.736025  
     135A      4.888970   136A      5.009706  

    Final Occupation by Irrep:
              A 
    DOCC [    29 ]

  Energy converged.

  @DF-RHF Final Energy:  -340.75455756305445

   => Energetics <=

    Nuclear Repulsion Energy =            350.5321994723041712
    One-Electron Energy =               -1155.3235871737583693
    Two-Electron Energy =                 464.0368301383999778
    DFT Exchange-Correlation Energy =       0.0000000000000000
    Empirical Dispersion Energy =           0.0000000000000000
    PCM Polarization Energy =               0.0000000000000000
    EFP Energy =                            0.0000000000000000
    Total Energy =                       -340.7545575630541634

    Alert: EFP and PCM quantities not currently incorporated into SCF psivars.

Properties will be evaluated at   0.000000,   0.000000,   0.000000 Bohr
  ==> Properties <==


Properties computed using the SCF density matrix

  Nuclear Dipole Moment: (a.u.)
     X:     7.3443      Y:     2.9944      Z:    -0.3503

  Electronic Dipole Moment: (a.u.)
     X:    -7.1116      Y:    -3.0221      Z:     0.3067

  Dipole Moment: (a.u.)
     X:     0.2327      Y:    -0.0277      Z:    -0.0435     Total:     0.2384

  Dipole Moment: (Debye)
     X:     0.5915      Y:    -0.0703      Z:    -0.1106     Total:     0.6058


  Saving occupied orbitals to File 180.

*** tstop() called on cx1-3-6-2.cx1.hpc.ic.ac.uk at Tue Jul  5 16:34:08 2016
Module time:
	user time   =      15.35 seconds =       0.26 minutes
	system time =       0.09 seconds =       0.00 minutes
	total time  =         16 seconds =       0.27 minutes
Total time:
	user time   =      15.35 seconds =       0.26 minutes
	system time =       0.09 seconds =       0.00 minutes
	total time  =         16 seconds =       0.27 minutes


Properties will be evaluated at   0.000000,   0.000000,   0.000000 Bohr

Properties computed using the  density matrix

  Nuclear Dipole Moment: (a.u.)
     X:     7.3443      Y:     2.9944      Z:    -0.3503

  Electronic Dipole Moment: (a.u.)
     X:    -7.1116      Y:    -3.0221      Z:     0.3067

  Dipole Moment: (a.u.)
     X:     0.2327      Y:    -0.0277      Z:    -0.0435     Total:     0.2384

  Dipole Moment: (Debye)
     X:     0.5915      Y:    -0.0703      Z:    -0.1106     Total:     0.6058

  Quadrupole Moment: (Debye Ang)
    XX:   -44.3090     YY:   -49.4649     ZZ:   -48.7658
    XY:     6.5496     XZ:    -0.4324     YZ:    -1.5023

  Traceless Quadrupole Moment: (Debye Ang)
    XX:     3.2042     YY:    -1.9516     ZZ:    -1.2526
    XY:     6.5496     XZ:    -0.4324     YZ:    -1.5023

  Mulliken Charges: (a.u.)
   Center  Symbol    Alpha    Beta     Spin     Total
       1     H     0.39386  0.39386  0.00000  0.21229
       2     C     2.99060  2.99060  0.00000  0.01880
       3     N     3.75459  3.75459  0.00000 -0.50918
       4     C     2.99833  2.99833  0.00000  0.00335
       5     C     2.87798  2.87798  0.00000  0.24404
       6     H     0.39447  0.39447  0.00000  0.21107
       7     N     3.73195  3.73195  0.00000 -0.46390
       8     C     2.99699  2.99699  0.00000  0.00601
       9     C     3.16185  3.16185  0.00000 -0.32371
      10     H     0.39244  0.39244  0.00000  0.21512
      11     C     3.25587  3.25587  0.00000 -0.51173
      12     H     0.40259  0.40259  0.00000  0.19481
      13     H     0.40502  0.40502  0.00000  0.18995
      14     H     0.41172  0.41172  0.00000  0.17656
      15     H     0.41364  0.41364  0.00000  0.17272
      16     H     0.41809  0.41809  0.00000  0.16381

   Total alpha = 29.00000, Total beta = 29.00000, Total charge =  0.00000


*** PSI4 exiting successfully. Buy a developer a beer!
