    -----------------------------------------------------------------------
          Psi4: An Open-Source Ab Initio Electronic Structure Package
                              Psi4 (no tag) Driver

                          Git: Rev {detached?}  

    J. M. Turney, A. C. Simmonett, R. M. Parrish, E. G. Hohenstein,
    F. A. Evangelista, J. T. Fermann, B. J. Mintz, L. A. Burns, J. J. Wilke,
    M. L. Abrams, N. J. Russ, M. L. Leininger, C. L. Janssen, E. T. Seidl,
    W. D. Allen, H. F. Schaefer, R. A. King, E. F. Valeev, C. D. Sherrill,
    and T. D. Crawford, WIREs Comput. Mol. Sci. 2, 556-565 (2012)
    (doi: 10.1002/wcms.93)

                         Additional Contributions by
    A. E. DePrince, M. Saitow, U. Bozkaya, A. Yu. Sokolov
    -----------------------------------------------------------------------


    Psi4 started on: Tue Jul  5 18:29:16 2016

    Process ID:   7106
    PSI4DATADIR: /export131/home/mjharvey/miniconda3/share
    Memory level set to 256.000 MB

  ==> Input File <==

--------------------------------------------------------------------------
set {
	reference rhf
	basis 6-31G*
}


set_num_threads( 1 )
memory 2 gb

molecule MOL {
0 1

H	 -2.430793	 0.701392	 1.432367
O	 -1.700625	 0.103471	 1.365911
C	 -1.446259	 -0.474692	 2.620933
C	 -2.493619	 -1.503594	 3.032181
H	 -0.478855	 -0.952485	 2.534227
H	 -1.358302	 0.296741	 3.385089
C	 -2.832900	 -2.518072	 1.937379
H	 -2.135596	 -2.025970	 3.915532
H	 -3.396923	 -0.970107	 3.323386
C	 -3.570281	 -1.886022	 0.753487
H	 -3.441448	 -3.311602	 2.362052
H	 -1.915105	 -2.984318	 1.578761
C	 -2.954856	 -0.581646	 0.233682
H	 -3.625561	 -2.607079	 -0.060065
H	 -4.597453	 -1.687050	 1.051863
C	 -3.034785	 0.600176	 1.203932
H	 -1.908799	 -0.767171	 -0.001183
H	 -3.431421	 -0.309164	 -0.706784
C	 -4.465221	 1.099239	 1.418936
H	 -2.423259	 1.417801	 0.824941
H	 -2.611115	 0.323596	 2.166382
C	 -5.411106	 0.710962	 0.283063
H	 -4.847259	 0.703375	 2.357459
H	 -4.456195	 2.181939	 1.526468
H	 -5.467273	 -0.368187	 0.171231
H	 -6.416738	 1.077069	 0.465559
H	 -5.076338	 1.123259	 -0.664726

	symmetry c1
}
set optking {
	frozen_dihedral = ("
		14 10 7 4,
		14 10 13 16,
		10 7 4 8,
		8 4 3 2,
		10 13 16 20,
		4 3 2 1
	")
}

ee = energy('scf')
oeprop('DIPOLE', 'QUADRUPOLE', 'MULLIKEN_CHARGES')
f=open( 'psi4out.xyz', 'w' )
f.write( "27  " )
f.write( str(ee) + "\n" )
f.write( MOL.save_string_xyz() )
f.close()
--------------------------------------------------------------------------

  Memory set to   2.000 GiB by Python script.

*** tstart() called on cx1-3-4-2.cx1.hpc.ic.ac.uk
*** at Tue Jul  5 18:29:16 2016


         ---------------------------------------------------------
                                   SCF
            by Justin Turney, Rob Parrish, and Andy Simmonett
                              RHF Reference
                        1 Threads,   2000 MiB Core
         ---------------------------------------------------------

  ==> Geometry <==

    Molecular point group: c1
    Full point group: C1

    Geometry (in Angstrom), charge = 0, multiplicity = 1:

       Center              X                  Y                   Z               Mass       
    ------------   -----------------  -----------------  -----------------  -----------------
           H          0.659808221191     1.171751362035     0.006824107241     1.007825032070
           O          1.389976221191     0.573830362035    -0.059631892759    15.994914619560
           C          1.644342221191    -0.004332637965     1.195390107241    12.000000000000
           C          0.596982221191    -1.033234637965     1.606638107241    12.000000000000
           H          2.611746221191    -0.482125637965     1.108684107241     1.007825032070
           H          1.732299221191     0.767100362035     1.959546107241     1.007825032070
           C          0.257701221191    -2.047712637965     0.511836107241    12.000000000000
           H          0.955005221191    -1.555610637965     2.489989107241     1.007825032070
           H         -0.306321778809    -0.499747637965     1.897843107241     1.007825032070
           C         -0.479679778809    -1.415662637965    -0.672055892759    12.000000000000
           H         -0.350846778809    -2.841242637965     0.936509107241     1.007825032070
           H          1.175496221191    -2.513958637965     0.153218107241     1.007825032070
           C          0.135745221191    -0.111286637965    -1.191860892759    12.000000000000
           H         -0.534959778809    -2.136719637965    -1.485607892759     1.007825032070
           H         -1.506851778809    -1.216690637965    -0.373679892759     1.007825032070
           C          0.055816221191     1.070535362035    -0.221610892759    12.000000000000
           H          1.181802221191    -0.296811637965    -1.426725892759     1.007825032070
           H         -0.340819778809     0.161195362035    -2.132326892759     1.007825032070
           C         -1.374619778809     1.569598362035    -0.006606892759    12.000000000000
           H          0.667342221191     1.888160362035    -0.600601892759     1.007825032070
           H          0.479486221191     0.793955362035     0.740839107241     1.007825032070
           C         -2.320504778809     1.181321362035    -1.142479892759    12.000000000000
           H         -1.756657778809     1.173734362035     0.931916107241     1.007825032070
           H         -1.365593778809     2.652298362035     0.100925107241     1.007825032070
           H         -2.376671778809     0.102172362035    -1.254311892759     1.007825032070
           H         -3.326136778809     1.547428362035    -0.959983892759     1.007825032070
           H         -1.985736778809     1.593618362035    -2.090268892759     1.007825032070

  Running in c1 symmetry.

  Rotational constants: A =      0.08011  B =      0.04442  C =      0.03716 [cm^-1]
  Rotational constants: A =   2401.66933  B =   1331.71994  C =   1113.92297 [MHz]
  Nuclear repulsion =  558.131733672975884

  Charge       = 0
  Multiplicity = 1
  Electrons    = 74
  Nalpha       = 37
  Nbeta        = 37

  ==> Algorithm <==

  SCF Algorithm Type is DF.
  DIIS enabled.
  MOM disabled.
  Fractional occupation disabled.
  Guess Type is CORE.
  Energy threshold   = 1.00e-06
  Density threshold  = 1.00e-06
  Integral threshold = 0.00e+00

  ==> Primary Basis <==

  Basis Set: 6-31G*
    Number of shells: 90
    Number of basis function: 171
    Number of Cartesian functions: 171
    Spherical Harmonics?: false
    Max angular momentum: 2

  ==> Pre-Iterations <==

   -------------------------------------------------------
    Irrep   Nso     Nmo     Nalpha   Nbeta   Ndocc  Nsocc
   -------------------------------------------------------
     A        171     171       0       0       0       0
   -------------------------------------------------------
    Total     171     171      37      37      37       0
   -------------------------------------------------------

 OEINTS: Overlap, kinetic, potential, dipole, and quadrupole integrals
         stored in file 35.

  ==> Integral Setup <==

  ==> DFJK: Density-Fitted J/K Matrices <==

    J tasked:                  Yes
    K tasked:                  Yes
    wK tasked:                  No
    OpenMP threads:              1
    Integrals threads:           1
    Memory (MB):              1430
    Algorithm:                Core
    Integral Cache:           NONE
    Schwarz Cutoff:          1E-12
    Fitting Condition:       1E-12

   => Auxiliary Basis Set <=

  Basis Set: 
    Number of shells: 378
    Number of basis function: 1179
    Number of Cartesian functions: 1179
    Spherical Harmonics?: false
    Max angular momentum: 3

  Minimum eigenvalue in the overlap matrix is 1.3526543807E-03.
  Using Symmetric Orthogonalization.
  SCF Guess: Core (One-Electron) Hamiltonian.

  ==> Iterations <==

                           Total Energy        Delta E     RMS |[F,P]|

   @DF-RHF iter   1:  -250.55324833217412   -2.50553e+02   6.99017e-02 
   @DF-RHF iter   2:  -159.07628826598375    9.14770e+01   6.69843e-02 DIIS
   @DF-RHF iter   3:  -284.59091554065014   -1.25515e+02   5.66511e-02 DIIS
   @DF-RHF iter   4:  -322.56793211444631   -3.79770e+01   5.34542e-02 DIIS
   @DF-RHF iter   5:  -383.76483832115457   -6.11969e+01   1.25396e-02 DIIS
   @DF-RHF iter   6:  -386.73487384187797   -2.97004e+00   4.72236e-03 DIIS
   @DF-RHF iter   7:  -387.07819418481199   -3.43320e-01   1.01936e-03 DIIS
   @DF-RHF iter   8:  -387.09536768477039   -1.71735e-02   3.17255e-04 DIIS
   @DF-RHF iter   9:  -387.09780562146102   -2.43794e-03   9.78543e-05 DIIS
   @DF-RHF iter  10:  -387.09806230879224   -2.56687e-04   4.96233e-05 DIIS
   @DF-RHF iter  11:  -387.09812909399238   -6.67852e-05   1.81797e-05 DIIS
   @DF-RHF iter  12:  -387.09814869605282   -1.96021e-05   1.00450e-05 DIIS
   @DF-RHF iter  13:  -387.09815399675529   -5.30070e-06   3.19020e-06 DIIS
   @DF-RHF iter  14:  -387.09815488190611   -8.85151e-07   9.46085e-07 DIIS

  ==> Post-Iterations <==

    Orbital Energies (a.u.)
    -----------------------

    Doubly Occupied:                                                      

       1A    -20.493540     2A    -11.278458     3A    -11.267523  
       4A    -11.227675     5A    -11.218872     6A    -11.210087  
       7A    -11.190266     8A    -11.187921     9A    -11.175217  
      10A     -1.640904    11A     -1.145596    12A     -1.082564  
      13A     -1.015626    14A     -1.008472    15A     -0.910996  
      16A     -0.878017    17A     -0.838425    18A     -0.783992  
      19A     -0.751268    20A     -0.675946    21A     -0.666058  
      22A     -0.633271    23A     -0.615058    24A     -0.588701  
      25A     -0.572049    26A     -0.560815    27A     -0.549951  
      28A     -0.518866    29A     -0.513000    30A     -0.490310  
      31A     -0.474329    32A     -0.465933    33A     -0.457451  
      34A     -0.446317    35A     -0.432326    36A     -0.349252  
      37A     -0.248018  

    Virtual:                                                              

      38A      0.198783    39A      0.242000    40A      0.250060  
      41A      0.254410    42A      0.275349    43A      0.290734  
      44A      0.293550    45A      0.313999    46A      0.318380  
      47A      0.324764    48A      0.335120    49A      0.337490  
      50A      0.355346    51A      0.366761    52A      0.373981  
      53A      0.390566    54A      0.399988    55A      0.403825  
      56A      0.411901    57A      0.437099    58A      0.441012  
      59A      0.455140    60A      0.482463    61A      0.500761  
      62A      0.507809    63A      0.581045    64A      0.682253  
      65A      0.721906    66A      0.726710    67A      0.748278  
      68A      0.756197    69A      0.767766    70A      0.801487  
      71A      0.822152    72A      0.863366    73A      0.875567  
      74A      0.899865    75A      0.904667    76A      0.923999  
      77A      0.956166    78A      0.961322    79A      0.990758  
      80A      1.004006    81A      1.019312    82A      1.059941  
      83A      1.073099    84A      1.099367    85A      1.103602  
      86A      1.132666    87A      1.140930    88A      1.150117  
      89A      1.153265    90A      1.170120    91A      1.173162  
      92A      1.190660    93A      1.197805    94A      1.204976  
      95A      1.211746    96A      1.231532    97A      1.241853  
      98A      1.248105    99A      1.269625   100A      1.289589  
     101A      1.305209   102A      1.320460   103A      1.345822  
     104A      1.356067   105A      1.419772   106A      1.443509  
     107A      1.499181   108A      1.592261   109A      1.600576  
     110A      1.631987   111A      1.677420   112A      1.733997  
     113A      1.753280   114A      1.779477   115A      1.789294  
     116A      1.846776   117A      1.900047   118A      1.931196  
     119A      1.948864   120A      2.013614   121A      2.052568  
     122A      2.074259   123A      2.095190   124A      2.140758  
     125A      2.165756   126A      2.204139   127A      2.233955  
     128A      2.252490   129A      2.287437   130A      2.302400  
     131A      2.333414   132A      2.350531   133A      2.382379  
     134A      2.384847   135A      2.422056   136A      2.462591  
     137A      2.485952   138A      2.538321   139A      2.580978  
     140A      2.591495   141A      2.648329   142A      2.663692  
     143A      2.689557   144A      2.698753   145A      2.712923  
     146A      2.729517   147A      2.747474   148A      2.775603  
     149A      2.812526   150A      2.823589   151A      2.850592  
     152A      2.888505   153A      2.949873   154A      2.958216  
     155A      3.001102   156A      3.022478   157A      3.057493  
     158A      3.118038   159A      3.170015   160A      3.265157  
     161A      3.549573   162A      4.537933   163A      4.592153  
     164A      4.679901   165A      4.738034   166A      4.835660  
     167A      4.856396   168A      4.965574   169A      4.987602  
     170A      5.082968   171A      5.170171  

    Final Occupation by Irrep:
              A 
    DOCC [    37 ]

  Energy converged.

  @DF-RHF Final Energy:  -387.09815488190611

   => Energetics <=

    Nuclear Repulsion Energy =            558.1317336729758836
    One-Electron Energy =               -1631.3333870944879891
    Two-Electron Energy =                 686.1034985396067896
    DFT Exchange-Correlation Energy =       0.0000000000000000
    Empirical Dispersion Energy =           0.0000000000000000
    PCM Polarization Energy =               0.0000000000000000
    EFP Energy =                            0.0000000000000000
    Total Energy =                       -387.0981548819054296

    Alert: EFP and PCM quantities not currently incorporated into SCF psivars.

Properties will be evaluated at   0.000000,   0.000000,   0.000000 Bohr
  ==> Properties <==


Properties computed using the SCF density matrix

  Nuclear Dipole Moment: (a.u.)
     X:    -4.1066      Y:     0.2920      Z:     0.0023

  Electronic Dipole Moment: (a.u.)
     X:     4.5616      Y:    -0.4662      Z:     0.6081

  Dipole Moment: (a.u.)
     X:     0.4550      Y:    -0.1743      Z:     0.6104     Total:     0.7810

  Dipole Moment: (Debye)
     X:     1.1565      Y:    -0.4430      Z:     1.5515     Total:     1.9852


  Saving occupied orbitals to File 180.

*** tstop() called on cx1-3-4-2.cx1.hpc.ic.ac.uk at Tue Jul  5 18:29:50 2016
Module time:
	user time   =      32.47 seconds =       0.54 minutes
	system time =       0.30 seconds =       0.01 minutes
	total time  =         34 seconds =       0.57 minutes
Total time:
	user time   =      32.47 seconds =       0.54 minutes
	system time =       0.30 seconds =       0.01 minutes
	total time  =         34 seconds =       0.57 minutes


Properties will be evaluated at   0.000000,   0.000000,   0.000000 Bohr

Properties computed using the  density matrix

  Nuclear Dipole Moment: (a.u.)
     X:    -4.1066      Y:     0.2920      Z:     0.0023

  Electronic Dipole Moment: (a.u.)
     X:     4.5616      Y:    -0.4662      Z:     0.6081

  Dipole Moment: (a.u.)
     X:     0.4550      Y:    -0.1743      Z:     0.6104     Total:     0.7810

  Dipole Moment: (Debye)
     X:     1.1565      Y:    -0.4430      Z:     1.5515     Total:     1.9852

  Quadrupole Moment: (Debye Ang)
    XX:   -62.8238     YY:   -59.2396     ZZ:   -60.0136
    XY:     1.0381     XZ:     1.4667     YZ:    -0.7212

  Traceless Quadrupole Moment: (Debye Ang)
    XX:    -2.1315     YY:     1.4528     ZZ:     0.6787
    XY:     1.0381     XZ:     1.4667     YZ:    -0.7212

  Mulliken Charges: (a.u.)
   Center  Symbol    Alpha    Beta     Spin     Total
       1     H     0.42812  0.42812  0.00000  0.14375
       2     O     4.28319  4.28319  0.00000 -0.56637
       3     C     3.07151  3.07151  0.00000 -0.14302
       4     C     3.19100  3.19100  0.00000 -0.38199
       5     H     0.38874  0.38874  0.00000  0.22252
       6     H     0.40922  0.40922  0.00000  0.18156
       7     C     3.14947  3.14947  0.00000 -0.29894
       8     H     0.41136  0.41136  0.00000  0.17728
       9     H     0.40462  0.40462  0.00000  0.19075
      10     C     3.15100  3.15100  0.00000 -0.30200
      11     H     0.41595  0.41595  0.00000  0.16811
      12     H     0.42277  0.42277  0.00000  0.15446
      13     C     3.17602  3.17602  0.00000 -0.35204
      14     H     0.41832  0.41832  0.00000  0.16336
      15     H     0.42175  0.42175  0.00000  0.15651
      16     C     3.09185  3.09185  0.00000 -0.18370
      17     H     0.39033  0.39033  0.00000  0.21934
      18     H     0.43126  0.43126  0.00000  0.13749
      19     C     3.16473  3.16473  0.00000 -0.32947
      20     H     0.37126  0.37126  0.00000  0.25748
      21     H     0.42081  0.42081  0.00000  0.15838
      22     C     3.24561  3.24561  0.00000 -0.49123
      23     H     0.43405  0.43405  0.00000  0.13190
      24     H     0.43699  0.43699  0.00000  0.12602
      25     H     0.41986  0.41986  0.00000  0.16029
      26     H     0.42474  0.42474  0.00000  0.15052
      27     H     0.42547  0.42547  0.00000  0.14906

   Total alpha = 37.00000, Total beta = 37.00000, Total charge =  0.00000


*** PSI4 exiting successfully. Buy a developer a beer!
