    -----------------------------------------------------------------------
          Psi4: An Open-Source Ab Initio Electronic Structure Package
                              Psi4 (no tag) Driver

                          Git: Rev {detached?}  

    J. M. Turney, A. C. Simmonett, R. M. Parrish, E. G. Hohenstein,
    F. A. Evangelista, J. T. Fermann, B. J. Mintz, L. A. Burns, J. J. Wilke,
    M. L. Abrams, N. J. Russ, M. L. Leininger, C. L. Janssen, E. T. Seidl,
    W. D. Allen, H. F. Schaefer, R. A. King, E. F. Valeev, C. D. Sherrill,
    and T. D. Crawford, WIREs Comput. Mol. Sci. 2, 556-565 (2012)
    (doi: 10.1002/wcms.93)

                         Additional Contributions by
    A. E. DePrince, M. Saitow, U. Bozkaya, A. Yu. Sokolov
    -----------------------------------------------------------------------


    Psi4 started on: Tue Jul  5 16:39:00 2016

    Process ID:  27952
    PSI4DATADIR: /export131/home/mjharvey/miniconda3/share
    Memory level set to 256.000 MB

  ==> Input File <==

--------------------------------------------------------------------------
set {
	reference rhf
	basis 6-31G*
}


set_num_threads( 1 )
memory 2 gb

molecule MOL {
0 1

H	 0.672387	 1.313497	 0.763950
N	 -0.106294	 0.693004	 0.656159
C	 0.346579	 -0.654801	 0.360470
H	 -0.657487	 1.035254	 -0.106836
C	 0.934282	 -0.708458	 -1.034113
H	 1.091924	 -1.031320	 1.062394
H	 -0.507022	 -1.324470	 0.401560
O	 -0.088814	 -0.446451	 -1.951562
H	 1.727909	 0.031269	 -1.137060
H	 1.359405	 -1.693389	 -1.214159
C	 0.295968	 -0.548357	 -3.285402
H	 1.077210	 -1.293847	 -3.345427
H	 -0.534823	 -0.858547	 -3.916710
H	 0.680852	 0.397273	 -3.661511

	symmetry c1
}
set optking {
	frozen_dihedral = ("
		8 5 3 6,
		6 3 2 4,
		11 8 5 3
	")
}

ee = energy('scf')
oeprop('DIPOLE', 'QUADRUPOLE', 'MULLIKEN_CHARGES')
f=open( 'psi4out.xyz', 'w' )
f.write( "14  " )
f.write( str(ee) + "\n" )
f.write( MOL.save_string_xyz() )
f.close()
--------------------------------------------------------------------------

  Memory set to   2.000 GiB by Python script.

*** tstart() called on cx1-3-6-4.cx1.hpc.ic.ac.uk
*** at Tue Jul  5 16:39:01 2016


         ---------------------------------------------------------
                                   SCF
            by Justin Turney, Rob Parrish, and Andy Simmonett
                              RHF Reference
                        1 Threads,   2000 MiB Core
         ---------------------------------------------------------

  ==> Geometry <==

    Molecular point group: c1
    Full point group: C1

    Geometry (in Angstrom), charge = 0, multiplicity = 1:

       Center              X                  Y                   Z               Mass       
    ------------   -----------------  -----------------  -----------------  -----------------
           H          0.393152226046     1.630903818501     1.839987685536     1.007825032070
           N         -0.385528773954     1.010410818501     1.732196685536    14.003074004780
           C          0.067344226046    -0.337394181499     1.436507685536    12.000000000000
           H         -0.936721773954     1.352660818501     0.969201685536     1.007825032070
           C          0.655047226046    -0.391051181499     0.041924685536    12.000000000000
           H          0.812689226046    -0.713913181499     2.138431685536     1.007825032070
           H         -0.786256773954    -1.007063181499     1.477597685536     1.007825032070
           O         -0.368048773954    -0.129044181499    -0.875524314464    15.994914619560
           H          1.448674226046     0.348675818501    -0.061022314464     1.007825032070
           H          1.080170226046    -1.375982181499    -0.138121314464     1.007825032070
           C          0.016733226046    -0.230950181499    -2.209364314464    12.000000000000
           H          0.797975226046    -0.976440181499    -2.269389314464     1.007825032070
           H         -0.814057773954    -0.541140181499    -2.840672314464     1.007825032070
           H          0.401617226046     0.714679818501    -2.585473314464     1.007825032070

  Running in c1 symmetry.

  Rotational constants: A =      0.43711  B =      0.09098  C =      0.08282 [cm^-1]
  Rotational constants: A =  13104.13766  B =   2727.48136  C =   2482.93679 [MHz]
  Nuclear repulsion =  195.290193406909651

  Charge       = 0
  Multiplicity = 1
  Electrons    = 42
  Nalpha       = 21
  Nbeta        = 21

  ==> Algorithm <==

  SCF Algorithm Type is DF.
  DIIS enabled.
  MOM disabled.
  Fractional occupation disabled.
  Guess Type is CORE.
  Energy threshold   = 1.00e-06
  Density threshold  = 1.00e-06
  Integral threshold = 0.00e+00

  ==> Primary Basis <==

  Basis Set: 6-31G*
    Number of shells: 48
    Number of basis function: 93
    Number of Cartesian functions: 93
    Spherical Harmonics?: false
    Max angular momentum: 2

  ==> Pre-Iterations <==

   -------------------------------------------------------
    Irrep   Nso     Nmo     Nalpha   Nbeta   Ndocc  Nsocc
   -------------------------------------------------------
     A         93      93       0       0       0       0
   -------------------------------------------------------
    Total      93      93      21      21      21       0
   -------------------------------------------------------

 OEINTS: Overlap, kinetic, potential, dipole, and quadrupole integrals
         stored in file 35.

  ==> Integral Setup <==

  ==> DFJK: Density-Fitted J/K Matrices <==

    J tasked:                  Yes
    K tasked:                  Yes
    wK tasked:                  No
    OpenMP threads:              1
    Integrals threads:           1
    Memory (MB):              1430
    Algorithm:                Core
    Integral Cache:           NONE
    Schwarz Cutoff:          1E-12
    Fitting Condition:       1E-12

   => Auxiliary Basis Set <=

  Basis Set: 
    Number of shells: 201
    Number of basis function: 630
    Number of Cartesian functions: 630
    Spherical Harmonics?: false
    Max angular momentum: 3

  Minimum eigenvalue in the overlap matrix is 4.6360259287E-03.
  Using Symmetric Orthogonalization.
  SCF Guess: Core (One-Electron) Hamiltonian.

  ==> Iterations <==

                           Total Energy        Delta E     RMS |[F,P]|

   @DF-RHF iter   1:  -201.76332229473346   -2.01763e+02   7.99687e-02 
   @DF-RHF iter   2:  -155.30713875733349    4.64562e+01   6.60769e-02 DIIS
   @DF-RHF iter   3:  -211.50712957453132   -5.62000e+01   6.25932e-02 DIIS
   @DF-RHF iter   4:  -236.79805556930094   -2.52909e+01   3.93094e-02 DIIS
   @DF-RHF iter   5:  -247.66412660566405   -1.08661e+01   1.00522e-02 DIIS
   @DF-RHF iter   6:  -248.07674545891931   -4.12619e-01   3.30338e-03 DIIS
   @DF-RHF iter   7:  -248.11637763294473   -3.96322e-02   7.38133e-04 DIIS
   @DF-RHF iter   8:  -248.11859581764995   -2.21818e-03   2.68282e-04 DIIS
   @DF-RHF iter   9:  -248.11893020499926   -3.34387e-04   1.28074e-04 DIIS
   @DF-RHF iter  10:  -248.11902047304156   -9.02680e-05   3.47894e-05 DIIS
   @DF-RHF iter  11:  -248.11902775954886   -7.28651e-06   1.29656e-05 DIIS
   @DF-RHF iter  12:  -248.11902886935482   -1.10981e-06   2.38020e-06 DIIS
   @DF-RHF iter  13:  -248.11902892288882   -5.35340e-08   6.68306e-07 DIIS

  ==> Post-Iterations <==

    Orbital Energies (a.u.)
    -----------------------

    Doubly Occupied:                                                      

       1A    -20.560147     2A    -15.526469     3A    -11.269999  
       4A    -11.268339     5A    -11.242073     6A     -1.385554  
       7A     -1.175169     8A     -0.998727     9A     -0.910537  
      10A     -0.824615    11A     -0.685518    12A     -0.675111  
      13A     -0.643684    14A     -0.630052    15A     -0.589490  
      16A     -0.549431    17A     -0.526978    18A     -0.507271  
      19A     -0.480053    20A     -0.420202    21A     -0.374967  

    Virtual:                                                              

      22A      0.231781    23A      0.256209    24A      0.279727  
      25A      0.296054    26A      0.302389    27A      0.317326  
      28A      0.322204    29A      0.330196    30A      0.357676  
      31A      0.379447    32A      0.426918    33A      0.450018  
      34A      0.453413    35A      0.729466    36A      0.757246  
      37A      0.760751    38A      0.799034    39A      0.824773  
      40A      0.837144    41A      0.875031    42A      0.908252  
      43A      0.977002    44A      1.014332    45A      1.078708  
      46A      1.092686    47A      1.114468    48A      1.130188  
      49A      1.154640    50A      1.163661    51A      1.169202  
      52A      1.209955    53A      1.220448    54A      1.233815  
      55A      1.255101    56A      1.265518    57A      1.294995  
      58A      1.378400    59A      1.457845    60A      1.600941  
      61A      1.618784    62A      1.669749    63A      1.744105  
      64A      1.805453    65A      1.829015    66A      1.933874  
      67A      2.005386    68A      2.075968    69A      2.206636  
      70A      2.220557    71A      2.353828    72A      2.385377  
      73A      2.400662    74A      2.422579    75A      2.446641  
      76A      2.471644    77A      2.520194    78A      2.561518  
      79A      2.660092    80A      2.723470    81A      2.772296  
      82A      2.788494    83A      2.857532    84A      2.898094  
      85A      3.007663    86A      3.086481    87A      3.191457  
      88A      3.336391    89A      4.223030    90A      4.384971  
      91A      4.646931    92A      4.711318    93A      4.885679  

    Final Occupation by Irrep:
              A 
    DOCC [    21 ]

  Energy converged.

  @DF-RHF Final Energy:  -248.11902892288882

   => Energetics <=

    Nuclear Repulsion Energy =            195.2901934069096512
    One-Electron Energy =                -724.3296516904736109
    Two-Electron Energy =                 280.9204293606751435
    DFT Exchange-Correlation Energy =       0.0000000000000000
    Empirical Dispersion Energy =           0.0000000000000000
    PCM Polarization Energy =               0.0000000000000000
    EFP Energy =                            0.0000000000000000
    Total Energy =                       -248.1190289228887877

    Alert: EFP and PCM quantities not currently incorporated into SCF psivars.

Properties will be evaluated at   0.000000,   0.000000,   0.000000 Bohr
  ==> Properties <==


Properties computed using the SCF density matrix

  Nuclear Dipole Moment: (a.u.)
     X:     2.2467      Y:    -0.5357      Z:    -1.3868

  Electronic Dipole Moment: (a.u.)
     X:    -1.4261      Y:     0.3882      Z:     0.6853

  Dipole Moment: (a.u.)
     X:     0.8206      Y:    -0.1475      Z:    -0.7015     Total:     1.0896

  Dipole Moment: (Debye)
     X:     2.0858      Y:    -0.3749      Z:    -1.7831     Total:     2.7695


  Saving occupied orbitals to File 180.

*** tstop() called on cx1-3-6-4.cx1.hpc.ic.ac.uk at Tue Jul  5 16:39:07 2016
Module time:
	user time   =       4.99 seconds =       0.08 minutes
	system time =       0.05 seconds =       0.00 minutes
	total time  =          6 seconds =       0.10 minutes
Total time:
	user time   =       4.99 seconds =       0.08 minutes
	system time =       0.05 seconds =       0.00 minutes
	total time  =          6 seconds =       0.10 minutes


Properties will be evaluated at   0.000000,   0.000000,   0.000000 Bohr

Properties computed using the  density matrix

  Nuclear Dipole Moment: (a.u.)
     X:     2.2467      Y:    -0.5357      Z:    -1.3868

  Electronic Dipole Moment: (a.u.)
     X:    -1.4261      Y:     0.3882      Z:     0.6853

  Dipole Moment: (a.u.)
     X:     0.8206      Y:    -0.1475      Z:    -0.7015     Total:     1.0896

  Dipole Moment: (Debye)
     X:     2.0858      Y:    -0.3749      Z:    -1.7831     Total:     2.7695

  Quadrupole Moment: (Debye Ang)
    XX:   -32.5706     YY:   -30.7357     ZZ:   -33.9558
    XY:     0.8384     XZ:     2.8451     YZ:    -1.3341

  Traceless Quadrupole Moment: (Debye Ang)
    XX:    -0.1499     YY:     1.6850     ZZ:    -1.5351
    XY:     0.8384     XZ:     2.8451     YZ:    -1.3341

  Mulliken Charges: (a.u.)
   Center  Symbol    Alpha    Beta     Spin     Total
       1     H     0.33712  0.33712  0.00000  0.32576
       2     N     3.92144  3.92144  0.00000 -0.84288
       3     C     3.07151  3.07151  0.00000 -0.14302
       4     H     0.32177  0.32177  0.00000  0.35647
       5     C     2.99674  2.99674  0.00000  0.00652
       6     H     0.41894  0.41894  0.00000  0.16211
       7     H     0.40951  0.40951  0.00000  0.18098
       8     O     4.30994  4.30994  0.00000 -0.61988
       9     H     0.43488  0.43488  0.00000  0.13025
      10     H     0.43140  0.43140  0.00000  0.13721
      11     C     3.07614  3.07614  0.00000 -0.15228
      12     H     0.43010  0.43010  0.00000  0.13980
      13     H     0.41376  0.41376  0.00000  0.17248
      14     H     0.42675  0.42675  0.00000  0.14650

   Total alpha = 21.00000, Total beta = 21.00000, Total charge = -0.00000


*** PSI4 exiting successfully. Buy a developer a beer!
