    -----------------------------------------------------------------------
          Psi4: An Open-Source Ab Initio Electronic Structure Package
                              Psi4 (no tag) Driver

                          Git: Rev {detached?}  

    J. M. Turney, A. C. Simmonett, R. M. Parrish, E. G. Hohenstein,
    F. A. Evangelista, J. T. Fermann, B. J. Mintz, L. A. Burns, J. J. Wilke,
    M. L. Abrams, N. J. Russ, M. L. Leininger, C. L. Janssen, E. T. Seidl,
    W. D. Allen, H. F. Schaefer, R. A. King, E. F. Valeev, C. D. Sherrill,
    and T. D. Crawford, WIREs Comput. Mol. Sci. 2, 556-565 (2012)
    (doi: 10.1002/wcms.93)

                         Additional Contributions by
    A. E. DePrince, M. Saitow, U. Bozkaya, A. Yu. Sokolov
    -----------------------------------------------------------------------


    Psi4 started on: Tue Jul  5 16:35:42 2016

    Process ID:  22684
    PSI4DATADIR: /export131/home/mjharvey/miniconda3/share
    Memory level set to 256.000 MB

  ==> Input File <==

--------------------------------------------------------------------------
set {
	reference rhf
	basis 6-31G*
}


set_num_threads( 1 )
memory 2 gb

molecule MOL {
0 1

H	 -2.698709	 -0.000305	 0.034435
C	 -1.693833	 0.000034	 0.434417
O	 -0.828952	 -0.000968	 -0.659236
H	 -1.574200	 0.882896	 1.055746
H	 -1.574147	 -0.881698	 1.057355
C	 0.559449	 -0.000018	 -0.420814
C	 1.078811	 -1.367681	 0.018135
C	 1.354204	 0.574245	 -1.591944
H	 0.665055	 0.679355	 0.416641
H	 0.461183	 -1.766343	 0.815728
H	 2.095532	 -1.277458	 0.387423
H	 1.090532	 -2.083952	 -0.797330
H	 0.926778	 1.519279	 -1.909238
H	 2.382731	 0.749356	 -1.292056
H	 1.373067	 -0.097165	 -2.444407

	symmetry c1
}
set optking {
	frozen_dihedral = ("
		6 3 2 1
	")
}

ee = energy('scf')
oeprop('DIPOLE', 'QUADRUPOLE', 'MULLIKEN_CHARGES')
f=open( 'psi4out.xyz', 'w' )
f.write( "15  " )
f.write( str(ee) + "\n" )
f.write( MOL.save_string_xyz() )
f.close()
--------------------------------------------------------------------------

  Memory set to   2.000 GiB by Python script.

*** tstart() called on cx1-3-4-2.cx1.hpc.ic.ac.uk
*** at Tue Jul  5 16:35:43 2016


         ---------------------------------------------------------
                                   SCF
            by Justin Turney, Rob Parrish, and Andy Simmonett
                              RHF Reference
                        1 Threads,   2000 MiB Core
         ---------------------------------------------------------

  ==> Geometry <==

    Molecular point group: c1
    Full point group: C1

    Geometry (in Angstrom), charge = 0, multiplicity = 1:

       Center              X                  Y                   Z               Mass       
    ------------   -----------------  -----------------  -----------------  -----------------
           H         -2.772919536958     0.159406929870     0.465948032037     1.007825032070
           C         -1.768043536958     0.159745929870     0.865930032037    12.000000000000
           O         -0.903162536958     0.158743929870    -0.227722967963    15.994914619560
           H         -1.648410536958     1.042607929870     1.487259032037     1.007825032070
           H         -1.648357536958    -0.721986070130     1.488868032037     1.007825032070
           C          0.485238463042     0.159693929870     0.010699032037    12.000000000000
           C          1.004600463042    -1.207969070130     0.449648032037    12.000000000000
           C          1.279993463042     0.733956929870    -1.160430967963    12.000000000000
           H          0.590844463042     0.839066929870     0.848154032037     1.007825032070
           H          0.386972463042    -1.606631070130     1.247241032037     1.007825032070
           H          2.021321463042    -1.117746070130     0.818936032037     1.007825032070
           H          1.016321463042    -1.924240070130    -0.365816967963     1.007825032070
           H          0.852567463042     1.678990929870    -1.477724967963     1.007825032070
           H          2.308520463042     0.909067929870    -0.860542967963     1.007825032070
           H          1.298856463042     0.062546929870    -2.012893967963     1.007825032070

  Running in c1 symmetry.

  Rotational constants: A =      0.25748  B =      0.12220  C =      0.09164 [cm^-1]
  Rotational constants: A =   7718.92097  B =   3663.48236  C =   2747.16715 [MHz]
  Nuclear repulsion =  196.090425456718862

  Charge       = 0
  Multiplicity = 1
  Electrons    = 42
  Nalpha       = 21
  Nbeta        = 21

  ==> Algorithm <==

  SCF Algorithm Type is DF.
  DIIS enabled.
  MOM disabled.
  Fractional occupation disabled.
  Guess Type is CORE.
  Energy threshold   = 1.00e-06
  Density threshold  = 1.00e-06
  Integral threshold = 0.00e+00

  ==> Primary Basis <==

  Basis Set: 6-31G*
    Number of shells: 50
    Number of basis function: 95
    Number of Cartesian functions: 95
    Spherical Harmonics?: false
    Max angular momentum: 2

  ==> Pre-Iterations <==

   -------------------------------------------------------
    Irrep   Nso     Nmo     Nalpha   Nbeta   Ndocc  Nsocc
   -------------------------------------------------------
     A         95      95       0       0       0       0
   -------------------------------------------------------
    Total      95      95      21      21      21       0
   -------------------------------------------------------

 OEINTS: Overlap, kinetic, potential, dipole, and quadrupole integrals
         stored in file 35.

  ==> Integral Setup <==

  ==> DFJK: Density-Fitted J/K Matrices <==

    J tasked:                  Yes
    K tasked:                  Yes
    wK tasked:                  No
    OpenMP threads:              1
    Integrals threads:           1
    Memory (MB):              1430
    Algorithm:                Core
    Integral Cache:           NONE
    Schwarz Cutoff:          1E-12
    Fitting Condition:       1E-12

   => Auxiliary Basis Set <=

  Basis Set: 
    Number of shells: 210
    Number of basis function: 655
    Number of Cartesian functions: 655
    Spherical Harmonics?: false
    Max angular momentum: 3

  Minimum eigenvalue in the overlap matrix is 4.2434945760E-03.
  Using Symmetric Orthogonalization.
  SCF Guess: Core (One-Electron) Hamiltonian.

  ==> Iterations <==

                           Total Energy        Delta E     RMS |[F,P]|

   @DF-RHF iter   1:  -176.73714439488893   -1.76737e+02   8.83905e-02 
   @DF-RHF iter   2:  -179.23371662994603   -2.49657e+00   5.76714e-02 DIIS
   @DF-RHF iter   3:  -204.55541840185961   -2.53217e+01   5.61601e-02 DIIS
   @DF-RHF iter   4:  -229.35847461741426   -2.48031e+01   2.40895e-02 DIIS
   @DF-RHF iter   5:  -231.96755570340255   -2.60908e+00   5.44908e-03 DIIS
   @DF-RHF iter   6:  -232.11329921191552   -1.45744e-01   1.99956e-03 DIIS
   @DF-RHF iter   7:  -232.13518405200674   -2.18848e-02   5.10584e-04 DIIS
   @DF-RHF iter   8:  -232.13682979633248   -1.64574e-03   1.60347e-04 DIIS
   @DF-RHF iter   9:  -232.13702825448419   -1.98458e-04   3.07482e-05 DIIS
   @DF-RHF iter  10:  -232.13703791818071   -9.66370e-06   1.22230e-05 DIIS
   @DF-RHF iter  11:  -232.13703871714395   -7.98963e-07   3.57529e-06 DIIS
   @DF-RHF iter  12:  -232.13703881999797   -1.02854e-07   1.32282e-06 DIIS
   @DF-RHF iter  13:  -232.13703883008569   -1.00877e-08   1.81879e-07 DIIS

  ==> Post-Iterations <==

    Orbital Energies (a.u.)
    -----------------------

    Doubly Occupied:                                                      

       1A    -20.546961     2A    -11.275142     3A    -11.264137  
       4A    -11.210515     5A    -11.209245     6A     -1.369813  
       7A     -1.051810     8A     -0.940038     9A     -0.920312  
      10A     -0.792777    11A     -0.667324    12A     -0.639193  
      13A     -0.636261    14A     -0.587583    15A     -0.550568  
      16A     -0.541308    17A     -0.534669    18A     -0.499822  
      19A     -0.496972    20A     -0.444103    21A     -0.405312  

    Virtual:                                                              

      22A      0.226845    23A      0.265187    24A      0.278832  
      25A      0.300336    26A      0.308994    27A      0.321522  
      28A      0.332664    29A      0.341716    30A      0.352079  
      31A      0.358979    32A      0.392304    33A      0.404632  
      34A      0.450785    35A      0.472683    36A      0.704226  
      37A      0.717132    38A      0.752070    39A      0.761461  
      40A      0.793886    41A      0.804178    42A      0.841244  
      43A      0.903689    44A      0.936278    45A      0.977109  
      46A      0.994771    47A      1.030761    48A      1.105114  
      49A      1.139298    50A      1.149504    51A      1.168890  
      52A      1.186373    53A      1.192862    54A      1.200974  
      55A      1.213306    56A      1.242535    57A      1.245670  
      58A      1.277575    59A      1.307060    60A      1.411170  
      61A      1.447881    62A      1.579411    63A      1.627532  
      64A      1.692719    65A      1.702840    66A      1.806916  
      67A      1.890202    68A      1.992434    69A      2.013725  
      70A      2.095590    71A      2.133267    72A      2.230992  
      73A      2.285716    74A      2.340449    75A      2.394763  
      76A      2.440053    77A      2.449149    78A      2.503389  
      79A      2.528142    80A      2.586055    81A      2.606951  
      82A      2.611883    83A      2.703579    84A      2.749967  
      85A      2.822027    86A      2.913807    87A      2.964657  
      88A      3.102434    89A      3.238916    90A      3.312408  
      91A      4.374176    92A      4.615777    93A      4.685616  
      94A      4.721089    95A      4.963948  

    Final Occupation by Irrep:
              A 
    DOCC [    21 ]

  Energy converged.

  @DF-RHF Final Energy:  -232.13703883008569

   => Energetics <=

    Nuclear Repulsion Energy =            196.0904254567188616
    One-Electron Energy =                -703.2871895610558113
    Two-Electron Energy =                 275.0597252742518322
    DFT Exchange-Correlation Energy =       0.0000000000000000
    Empirical Dispersion Energy =           0.0000000000000000
    PCM Polarization Energy =               0.0000000000000000
    EFP Energy =                            0.0000000000000000
    Total Energy =                       -232.1370388300850891

    Alert: EFP and PCM quantities not currently incorporated into SCF psivars.

Properties will be evaluated at   0.000000,   0.000000,   0.000000 Bohr
  ==> Properties <==


Properties computed using the SCF density matrix

  Nuclear Dipole Moment: (a.u.)
     X:     2.2509      Y:    -0.6357      Z:     1.5358

  Electronic Dipole Moment: (a.u.)
     X:    -2.0487      Y:     0.6436      Z:    -1.0513

  Dipole Moment: (a.u.)
     X:     0.2022      Y:     0.0079      Z:     0.4845     Total:     0.5251

  Dipole Moment: (Debye)
     X:     0.5140      Y:     0.0200      Z:     1.2315     Total:     1.3346


  Saving occupied orbitals to File 180.

*** tstop() called on cx1-3-4-2.cx1.hpc.ic.ac.uk at Tue Jul  5 16:35:50 2016
Module time:
	user time   =       7.03 seconds =       0.12 minutes
	system time =       0.07 seconds =       0.00 minutes
	total time  =          7 seconds =       0.12 minutes
Total time:
	user time   =       7.03 seconds =       0.12 minutes
	system time =       0.07 seconds =       0.00 minutes
	total time  =          7 seconds =       0.12 minutes


Properties will be evaluated at   0.000000,   0.000000,   0.000000 Bohr

Properties computed using the  density matrix

  Nuclear Dipole Moment: (a.u.)
     X:     2.2509      Y:    -0.6357      Z:     1.5358

  Electronic Dipole Moment: (a.u.)
     X:    -2.0487      Y:     0.6436      Z:    -1.0513

  Dipole Moment: (a.u.)
     X:     0.2022      Y:     0.0079      Z:     0.4845     Total:     0.5251

  Dipole Moment: (Debye)
     X:     0.5140      Y:     0.0200      Z:     1.2315     Total:     1.3346

  Quadrupole Moment: (Debye Ang)
    XX:   -31.4045     YY:   -33.4120     ZZ:   -33.0498
    XY:     0.1553     XZ:    -2.2838     YZ:     0.2774

  Traceless Quadrupole Moment: (Debye Ang)
    XX:     1.2176     YY:    -0.7899     ZZ:    -0.4277
    XY:     0.1553     XZ:    -2.2838     YZ:     0.2774

  Mulliken Charges: (a.u.)
   Center  Symbol    Alpha    Beta     Spin     Total
       1     H     0.41159  0.41159  0.00000  0.17682
       2     C     3.07821  3.07821  0.00000 -0.15642
       3     O     4.31605  4.31605  0.00000 -0.63210
       4     H     0.43016  0.43016  0.00000  0.13968
       5     H     0.43053  0.43053  0.00000  0.13894
       6     C     2.90305  2.90305  0.00000  0.19390
       7     C     3.24748  3.24748  0.00000 -0.49496
       8     C     3.24358  3.24358  0.00000 -0.48717
       9     H     0.43469  0.43469  0.00000  0.13061
      10     H     0.41827  0.41827  0.00000  0.16347
      11     H     0.42171  0.42171  0.00000  0.15659
      12     H     0.41620  0.41620  0.00000  0.16761
      13     H     0.41174  0.41174  0.00000  0.17652
      14     H     0.42048  0.42048  0.00000  0.15905
      15     H     0.41627  0.41627  0.00000  0.16746

   Total alpha = 21.00000, Total beta = 21.00000, Total charge =  0.00000


*** PSI4 exiting successfully. Buy a developer a beer!
