    -----------------------------------------------------------------------
          Psi4: An Open-Source Ab Initio Electronic Structure Package
                              Psi4 (no tag) Driver

                          Git: Rev {detached?}  

    J. M. Turney, A. C. Simmonett, R. M. Parrish, E. G. Hohenstein,
    F. A. Evangelista, J. T. Fermann, B. J. Mintz, L. A. Burns, J. J. Wilke,
    M. L. Abrams, N. J. Russ, M. L. Leininger, C. L. Janssen, E. T. Seidl,
    W. D. Allen, H. F. Schaefer, R. A. King, E. F. Valeev, C. D. Sherrill,
    and T. D. Crawford, WIREs Comput. Mol. Sci. 2, 556-565 (2012)
    (doi: 10.1002/wcms.93)

                         Additional Contributions by
    A. E. DePrince, M. Saitow, U. Bozkaya, A. Yu. Sokolov
    -----------------------------------------------------------------------


    Psi4 started on: Tue Jul  5 16:25:46 2016

    Process ID:  15582
    PSI4DATADIR: /export131/home/mjharvey/miniconda3/share
    Memory level set to 256.000 MB

  ==> Input File <==

--------------------------------------------------------------------------
set {
	reference rhf
	basis 6-31G*
}


set_num_threads( 1 )
memory 2 gb

molecule MOL {
0 1

H	 -1.606000	 -2.105000	 -0.000000
C	 -1.099000	 -1.157000	 -0.000000
N	 0.218000	 -1.178000	 -0.000000
C	 -1.810000	 0.031000	 0.000000
C	 0.848000	 -0.015000	 0.000000
H	 -2.885000	 0.036000	 0.000000
N	 -1.194000	 1.196000	 0.000000
C	 0.123000	 1.173000	 -0.000000
C	 2.353000	 -0.036000	 0.000000
H	 0.627000	 2.123000	 -0.000000
H	 2.720000	 -0.561000	 -0.875000
H	 2.765000	 0.966000	 -0.000000
H	 2.720000	 -0.561000	 0.875000

	symmetry c1
}
ee = optimize('scf')
oeprop('DIPOLE', 'QUADRUPOLE', 'MULLIKEN_CHARGES')
f=open( 'psi4out.xyz', 'w' )
f.write( "13  " )
f.write( str(ee) + "\n" )
f.write( MOL.save_string_xyz() )
f.close()
--------------------------------------------------------------------------

  Memory set to   2.000 GiB by Python script.
gradient() will perform analytic gradient computation.

*** tstart() called on cx1-1-2-4.cx1.hpc.ic.ac.uk
*** at Tue Jul  5 16:25:46 2016


         ---------------------------------------------------------
                                   SCF
            by Justin Turney, Rob Parrish, and Andy Simmonett
                              RHF Reference
                        1 Threads,   2000 MiB Core
         ---------------------------------------------------------

  ==> Geometry <==

    Molecular point group: c1
    Full point group: Cs

    Geometry (in Angstrom), charge = 0, multiplicity = 1:

       Center              X                  Y                   Z               Mass       
    ------------   -----------------  -----------------  -----------------  -----------------
           H         -1.560153219332    -2.106076595888     0.000000000000     1.007825032070
           C         -1.053153219332    -1.158076595888     0.000000000000    12.000000000000
           N          0.263846780668    -1.179076595888     0.000000000000    14.003074004780
           C         -1.764153219332     0.029923404112     0.000000000000    12.000000000000
           C          0.893846780668    -0.016076595888     0.000000000000    12.000000000000
           H         -2.839153219332     0.034923404112     0.000000000000     1.007825032070
           N         -1.148153219332     1.194923404112     0.000000000000    14.003074004780
           C          0.168846780668     1.171923404112     0.000000000000    12.000000000000
           C          2.398846780668    -0.037076595888     0.000000000000    12.000000000000
           H          0.672846780668     2.121923404112     0.000000000000     1.007825032070
           H          2.765846780668    -0.562076595888    -0.875000000000     1.007825032070
           H          2.810846780668     0.964923404112     0.000000000000     1.007825032070
           H          2.765846780668    -0.562076595888     0.875000000000     1.007825032070

  Running in c1 symmetry.

  Rotational constants: A =      0.20064  B =      0.09102  C =      0.06334 [cm^-1]
  Rotational constants: A =   6014.90520  B =   2728.74197  C =   1898.91803 [MHz]
  Nuclear repulsion =  278.079307112140327

  Charge       = 0
  Multiplicity = 1
  Electrons    = 50
  Nalpha       = 25
  Nbeta        = 25

  ==> Algorithm <==

  SCF Algorithm Type is DF.
  DIIS enabled.
  MOM disabled.
  Fractional occupation disabled.
  Guess Type is CORE.
  Energy threshold   = 1.00e-08
  Density threshold  = 1.00e-08
  Integral threshold = 0.00e+00

  ==> Primary Basis <==

  Basis Set: 6-31G*
    Number of shells: 54
    Number of basis function: 117
    Number of Cartesian functions: 117
    Spherical Harmonics?: false
    Max angular momentum: 2

  ==> Pre-Iterations <==

   -------------------------------------------------------
    Irrep   Nso     Nmo     Nalpha   Nbeta   Ndocc  Nsocc
   -------------------------------------------------------
     A        117     117       0       0       0       0
   -------------------------------------------------------
    Total     117     117      25      25      25       0
   -------------------------------------------------------

 OEINTS: Overlap, kinetic, potential, dipole, and quadrupole integrals
         stored in file 35.

  ==> Integral Setup <==

  ==> DFJK: Density-Fitted J/K Matrices <==

    J tasked:                  Yes
    K tasked:                  Yes
    wK tasked:                  No
    OpenMP threads:              1
    Integrals threads:           1
    Memory (MB):              1430
    Algorithm:                Core
    Integral Cache:           NONE
    Schwarz Cutoff:          1E-12
    Fitting Condition:       1E-12

   => Auxiliary Basis Set <=

  Basis Set: 
    Number of shells: 222
    Number of basis function: 717
    Number of Cartesian functions: 717
    Spherical Harmonics?: false
    Max angular momentum: 3

  Minimum eigenvalue in the overlap matrix is 1.1798793839E-03.
  Using Symmetric Orthogonalization.
  SCF Guess: Core (One-Electron) Hamiltonian.

  ==> Iterations <==

                           Total Energy        Delta E     RMS |[F,P]|

   @DF-RHF iter   1:  -239.02010565043940   -2.39020e+02   7.11833e-02 
   @DF-RHF iter   2:  -197.38406382680910    4.16360e+01   5.67919e-02 DIIS
   @DF-RHF iter   3:  -264.83633366342167   -6.74523e+01   5.17905e-02 DIIS
   @DF-RHF iter   4:  -288.67664270650630   -2.38403e+01   3.11424e-02 DIIS
   @DF-RHF iter   5:  -300.92589749809110   -1.22493e+01   1.00321e-02 DIIS
   @DF-RHF iter   6:  -301.56653029530264   -6.40633e-01   4.76286e-03 DIIS
   @DF-RHF iter   7:  -301.68994422219248   -1.23414e-01   1.95119e-03 DIIS
   @DF-RHF iter   8:  -301.71037258146100   -2.04284e-02   1.21724e-03 DIIS
   @DF-RHF iter   9:  -301.72155134420996   -1.11788e-02   4.44247e-04 DIIS
   @DF-RHF iter  10:  -301.72348845730949   -1.93711e-03   1.10422e-04 DIIS
   @DF-RHF iter  11:  -301.72359440012201   -1.05943e-04   4.15872e-05 DIIS
   @DF-RHF iter  12:  -301.72361940810720   -2.50080e-05   1.55818e-05 DIIS
   @DF-RHF iter  13:  -301.72362593553760   -6.52743e-06   6.29547e-06 DIIS
   @DF-RHF iter  14:  -301.72362705488865   -1.11935e-06   3.19353e-06 DIIS
   @DF-RHF iter  15:  -301.72362734735145   -2.92463e-07   1.16123e-06 DIIS
   @DF-RHF iter  16:  -301.72362738810182   -4.07504e-08   3.24459e-07 DIIS
   @DF-RHF iter  17:  -301.72362739056462   -2.46280e-09   7.52690e-08 DIIS
   @DF-RHF iter  18:  -301.72362739068330   -1.18689e-10   2.38288e-08 DIIS
   @DF-RHF iter  19:  -301.72362739069490   -1.15961e-11   9.61426e-09 DIIS

  ==> Post-Iterations <==

    Orbital Energies (a.u.)
    -----------------------

    Doubly Occupied:                                                      

       1A    -15.587289     2A    -15.582398     3A    -11.284731  
       4A    -11.276923     5A    -11.272559     6A    -11.272514  
       7A    -11.229067     8A     -1.314136     9A     -1.222587  
      10A     -1.074072    11A     -0.973402    12A     -0.895822  
      13A     -0.855728    14A     -0.715659    15A     -0.710596  
      16A     -0.656104    17A     -0.603424    18A     -0.591455  
      19A     -0.558915    20A     -0.548075    21A     -0.538202  
      22A     -0.487186    23A     -0.429750    24A     -0.396486  
      25A     -0.345951  

    Virtual:                                                              

      26A      0.102886    27A      0.135763    28A      0.251397  
      29A      0.273102    30A      0.284132    31A      0.310936  
      32A      0.316654    33A      0.334281    34A      0.373363  
      35A      0.375677    36A      0.404061    37A      0.496987  
      38A      0.507986    39A      0.558590    40A      0.625843  
      41A      0.659016    42A      0.721925    43A      0.724547  
      44A      0.743160    45A      0.755127    46A      0.776237  
      47A      0.826608    48A      0.843037    49A      0.843249  
      50A      0.867942    51A      0.897339    52A      0.919876  
      53A      0.940977    54A      0.976816    55A      1.023969  
      56A      1.078433    57A      1.080330    58A      1.080528  
      59A      1.094079    60A      1.109502    61A      1.149761  
      62A      1.155792    63A      1.163048    64A      1.194791  
      65A      1.224248    66A      1.243366    67A      1.259170  
      68A      1.316318    69A      1.372641    70A      1.389107  
      71A      1.498632    72A      1.523121    73A      1.563416  
      74A      1.607227    75A      1.690170    76A      1.719683  
      77A      1.771684    78A      1.773862    79A      1.786062  
      80A      1.796058    81A      1.962118    82A      2.052567  
      83A      2.108258    84A      2.143055    85A      2.148556  
      86A      2.187726    87A      2.231470    88A      2.261146  
      89A      2.403652    90A      2.465669    91A      2.483502  
      92A      2.529989    93A      2.549497    94A      2.594365  
      95A      2.626934    96A      2.651584    97A      2.652988  
      98A      2.697773    99A      2.708835   100A      2.819931  
     101A      2.867126   102A      2.922094   103A      2.993580  
     104A      3.101451   105A      3.134722   106A      3.164118  
     107A      3.206986   108A      3.254981   109A      3.494525  
     110A      3.841368   111A      4.358336   112A      4.494341  
     113A      4.550264   114A      4.666634   115A      4.707442  
     116A      4.841338   117A      4.968092  

    Final Occupation by Irrep:
              A 
    DOCC [    25 ]

  Energy converged.

  @DF-RHF Final Energy:  -301.72362739069490

   => Energetics <=

    Nuclear Repulsion Energy =            278.0793071121403273
    One-Electron Energy =                -958.7598114415947066
    Two-Electron Energy =                 378.9568769387597058
    DFT Exchange-Correlation Energy =       0.0000000000000000
    Empirical Dispersion Energy =           0.0000000000000000
    PCM Polarization Energy =               0.0000000000000000
    EFP Energy =                            0.0000000000000000
    Total Energy =                       -301.7236273906946735

    Alert: EFP and PCM quantities not currently incorporated into SCF psivars.

Properties will be evaluated at   0.000000,   0.000000,   0.000000 Bohr
  ==> Properties <==


Properties computed using the SCF density matrix

  Nuclear Dipole Moment: (a.u.)
     X:     4.3300      Y:    -0.1017      Z:     0.0000

  Electronic Dipole Moment: (a.u.)
     X:    -4.1437      Y:     0.0363      Z:     0.0000

  Dipole Moment: (a.u.)
     X:     0.1863      Y:    -0.0654      Z:     0.0000     Total:     0.1975

  Dipole Moment: (Debye)
     X:     0.4735      Y:    -0.1663      Z:     0.0000     Total:     0.5019


  Saving occupied orbitals to File 180.

*** tstop() called on cx1-1-2-4.cx1.hpc.ic.ac.uk at Tue Jul  5 16:25:55 2016
Module time:
	user time   =       8.12 seconds =       0.14 minutes
	system time =       0.05 seconds =       0.00 minutes
	total time  =          9 seconds =       0.15 minutes
Total time:
	user time   =       8.12 seconds =       0.14 minutes
	system time =       0.05 seconds =       0.00 minutes
	total time  =          9 seconds =       0.15 minutes

*** tstart() called on cx1-1-2-4.cx1.hpc.ic.ac.uk
*** at Tue Jul  5 16:25:55 2016


         ------------------------------------------------------------
                                   SCF GRAD                          
                          Rob Parrish, Justin Turney,                
                       Andy Simmonett, and Alex Sokolov              
         ------------------------------------------------------------

  ==> Geometry <==

    Molecular point group: c1
    Full point group: Cs

    Geometry (in Angstrom), charge = 0, multiplicity = 1:

       Center              X                  Y                   Z               Mass       
    ------------   -----------------  -----------------  -----------------  -----------------
           H         -1.560153219332    -2.106076595888     0.000000000000     1.007825032070
           C         -1.053153219332    -1.158076595888     0.000000000000    12.000000000000
           N          0.263846780668    -1.179076595888     0.000000000000    14.003074004780
           C         -1.764153219332     0.029923404112     0.000000000000    12.000000000000
           C          0.893846780668    -0.016076595888     0.000000000000    12.000000000000
           H         -2.839153219332     0.034923404112     0.000000000000     1.007825032070
           N         -1.148153219332     1.194923404112     0.000000000000    14.003074004780
           C          0.168846780668     1.171923404112     0.000000000000    12.000000000000
           C          2.398846780668    -0.037076595888     0.000000000000    12.000000000000
           H          0.672846780668     2.121923404112     0.000000000000     1.007825032070
           H          2.765846780668    -0.562076595888    -0.875000000000     1.007825032070
           H          2.810846780668     0.964923404112     0.000000000000     1.007825032070
           H          2.765846780668    -0.562076595888     0.875000000000     1.007825032070

  Nuclear repulsion =  278.079307112140327

  ==> Basis Set <==

  Basis Set: 6-31G*
    Number of shells: 54
    Number of basis function: 117
    Number of Cartesian functions: 117
    Spherical Harmonics?: false
    Max angular momentum: 2

  ==> DFJKGrad: Density-Fitted SCF Gradients <==

    Gradient:                    1
    J tasked:                  Yes
    K tasked:                  Yes
    wK tasked:                  No
    OpenMP threads:              1
    Integrals threads:           1
    Memory (MB):              1430
    Schwarz Cutoff:          0E+00
    Fitting Condition:       1E-12

   => Auxiliary Basis Set <=

  Basis Set: 
    Number of shells: 222
    Number of basis function: 717
    Number of Cartesian functions: 717
    Spherical Harmonics?: false
    Max angular momentum: 3


  -Total Gradient:
     Atom            X                  Y                   Z
    ------   -----------------  -----------------  -----------------
       1        0.000097709430     0.000048124000     0.000000000003
       2        0.000143063526    -0.000231327100    -0.000000000019
       3       -0.000469416276     0.000109304654     0.000000000018
       4        0.000734456021     0.000371475140    -0.000000000003
       5       -0.000035917401    -0.000686473510     0.000000000103
       6       -0.000242275070    -0.000060471199    -0.000000000000
       7        0.000348304272    -0.000136523029     0.000000000011
       8       -0.000876939451     0.000231470858    -0.000000000023
       9        0.000356163737     0.000300544643     0.000000000200
      10        0.000061046404     0.000196183058     0.000000000005
      11       -0.000053964780    -0.000052358785    -0.000059682177
      12       -0.000008265572    -0.000037590089     0.000000000004
      13       -0.000053964843    -0.000052358642     0.000059681877


*** tstop() called on cx1-1-2-4.cx1.hpc.ic.ac.uk at Tue Jul  5 16:26:05 2016
Module time:
	user time   =      10.29 seconds =       0.17 minutes
	system time =       0.05 seconds =       0.00 minutes
	total time  =         10 seconds =       0.17 minutes
Total time:
	user time   =      18.41 seconds =       0.31 minutes
	system time =       0.10 seconds =       0.00 minutes
	total time  =         19 seconds =       0.32 minutes
CURRENT ENERGY: -301.7236273907

			-----------------------------------------
			 OPTKING 2.0: for geometry optimizations 
			  - R.A. King,  Bethel University        
			-----------------------------------------

	Internal coordinates to be generated automatically.
	Detected frag with atoms:  1 2 3 4 5 6 7 8 9 10 11 12 13
	---Fragment 1 Bond Connectivity---
	 1 : 2
	 2 : 1 3 4
	 3 : 2 5
	 4 : 2 6 7
	 5 : 3 8 9
	 6 : 4
	 7 : 4 8
	 8 : 5 7 10
	 9 : 5 11 12 13
	 10 : 8
	 11 : 9
	 12 : 9
	 13 : 9

	---Fragment 1 Geometry and Gradient---
	 H          -2.9482623099       -3.9799079811        0.0000000000
	 C          -1.9901711605       -2.1884476071        0.0000000000
	 N           0.4985981565       -2.2281318559        0.0000000000
	 C          -3.3337664410        0.0565470387        0.0000000000
	 C           1.6891256202       -0.0303803634        0.0000000000
	 H          -5.3652220338        0.0659956694        0.0000000000
	 N          -2.1696951431        2.2580779835        0.0000000000
	 C           0.3190741739        2.2146142825        0.0000000000
	 C           4.5331634502       -0.0700646122        0.0000000000
	 H           1.2714961449        4.0098541087        0.0000000000
	 H           5.2266929410       -1.0621708319       -1.6535103663
	 H           5.3117306170        1.8234409730        0.0000000000
	 H           5.2266929410       -1.0621708319        1.6535103663
	             0.0000977094        0.0000481240        0.0000000000
	             0.0001430635       -0.0002313271       -0.0000000000
	            -0.0004694163        0.0001093047        0.0000000000
	             0.0007344560        0.0003714751       -0.0000000000
	            -0.0000359174       -0.0006864735        0.0000000001
	            -0.0002422751       -0.0000604712       -0.0000000000
	             0.0003483043       -0.0001365230        0.0000000000
	            -0.0008769395        0.0002314709       -0.0000000000
	             0.0003561637        0.0003005446        0.0000000002
	             0.0000610464        0.0001961831        0.0000000000
	            -0.0000539648       -0.0000523588       -0.0000596822
	            -0.0000082656       -0.0000375901        0.0000000000
	            -0.0000539648       -0.0000523586        0.0000596819

	Previous optimization step data not found.  Starting new optimization.

	---Fragment 1 Intrafragment Coordinates---
	 - Coordinate -           - BOHR/RAD -       - ANG/DEG -
	 R(1,2)           =         2.031568	       1.075060
	 R(2,3)           =         2.489086	       1.317168
	 R(2,4)           =         2.616343	       1.384509
	 R(3,5)           =         2.499493	       1.322675
	 R(4,6)           =         2.031478	       1.075012
	 R(4,7)           =         2.490341	       1.317832
	 R(5,8)           =         2.630027	       1.391750
	 R(5,9)           =         2.844315	       1.505147
	 R(7,8)           =         2.489149	       1.317201
	 R(8,10)          =         2.032239	       1.075414
	 R(9,11)          =         2.049233	       1.084407
	 R(9,12)          =         2.047323	       1.083397
	 R(9,13)          =         2.049233	       1.084407
	 B(1,2,3)         =         2.045959	     117.224800
	 B(1,2,4)         =         2.111182	     120.961796
	 B(2,3,5)         =         2.051303	     117.530993
	 B(2,4,6)         =         2.114752	     121.166372
	 B(2,4,7)         =         2.115902	     121.232231
	 B(3,2,4)         =         2.126045	     121.813404
	 B(3,5,8)         =         2.097206	     120.161047
	 B(3,5,9)         =         2.053294	     117.645092
	 B(4,7,8)         =         2.039721	     116.867379
	 B(5,8,7)         =         2.136195	     122.394946
	 B(5,8,10)        =         2.105887	     120.658435
	 B(5,9,11)        =         1.923201	     110.191290
	 B(5,9,12)        =         1.946949	     111.551945
	 B(5,9,13)        =         1.923201	     110.191290
	 B(6,4,7)         =         2.052532	     117.601397
	 B(7,8,10)        =         2.041104	     116.946619
	 B(8,5,9)         =         2.132685	     122.193862
	 B(11,9,12)       =         1.895534	     108.606118
	 B(11,9,13)       =         1.877745	     107.586836
	 B(12,9,13)       =         1.895534	     108.606118
	 D(1,2,3,5)       =         3.141593	     180.000000
	 D(1,2,4,6)       =         0.000000	       0.000000
	 D(1,2,4,7)       =         3.141593	     180.000000
	 D(2,3,5,8)       =         0.000000	       0.000000
	 D(2,3,5,9)       =         3.141593	     180.000000
	 D(2,4,7,8)       =         0.000000	       0.000000
	 D(3,2,4,6)       =         3.141593	     180.000000
	 D(3,2,4,7)       =         0.000000	       0.000000
	 D(3,5,8,7)       =         0.000000	       0.000000
	 D(3,5,8,10)      =         3.141593	     180.000000
	 D(3,5,9,11)      =         1.034734	      59.285890
	 D(3,5,9,12)      =         3.141593	     180.000000
	 D(3,5,9,13)      =        -1.034734	     -59.285890
	 D(4,2,3,5)       =         0.000000	       0.000000
	 D(4,7,8,5)       =         0.000000	       0.000000
	 D(4,7,8,10)      =         3.141593	     180.000000
	 D(6,4,7,8)       =         3.141593	     180.000000
	 D(7,8,5,9)       =         3.141593	     180.000000
	 D(8,5,9,11)      =        -2.106859	    -120.714110
	 D(8,5,9,12)      =         0.000000	       0.000000
	 D(8,5,9,13)      =         2.106859	     120.714110
	 D(9,5,8,10)      =         0.000000	       0.000000

	Current energy   :      -301.7236273907

	Generating empirical Hessian (Schlegel '84) for each fragment.
	Taking RFO optimization step.
	Going to follow RFO solution 1.
	Using RFO vector 1.
	Norm of target step-size    0.00315
	Projected energy change by RFO approximation:        -0.0000030661

	Back-transformation to cartesian coordinates...
	Successfully converged to displaced geometry.

	--- Internal Coordinate Step in ANG or DEG, aJ/ANG or AJ/DEG ---
	 ---------------------------------------------------------------------------
	   Coordinate                Previous        Force       Change         New 
	   ----------                --------       ------       ------       ------
	    1 R(1,2)          =      1.075060     0.000729     0.000128     1.075188
	    2 R(2,3)          =      1.317168     0.003738     0.000383     1.317550
	    3 R(2,4)          =      1.384509    -0.000189    -0.000004     1.384505
	    4 R(3,5)          =      1.322675     0.000516     0.000036     1.322711
	    5 R(4,6)          =      1.075012    -0.001994    -0.000350     1.074662
	    6 R(4,7)          =      1.317832     0.002221     0.000246     1.318078
	    7 R(5,8)          =      1.391750    -0.003959    -0.000562     1.391188
	    8 R(5,9)          =      1.505147    -0.001959    -0.000395     1.504752
	    9 R(7,8)          =      1.317201     0.005170     0.000531     1.317732
	   10 R(8,10)         =      1.075414    -0.001664    -0.000292     1.075122
	   11 R(9,11)         =      1.084407    -0.000455    -0.000082     1.084325
	   12 R(9,12)         =      1.083397     0.000312     0.000056     1.083453
	   13 R(9,13)         =      1.084407    -0.000455    -0.000082     1.084325
	   14 B(1,2,3)        =    117.224800     0.000001     0.007714   117.232514
	   15 B(1,2,4)        =    120.961796    -0.000009    -0.038456   120.923340
	   16 B(2,3,5)        =    117.530993     0.000002     0.000009   117.531002
	   17 B(2,4,6)        =    121.166372     0.000015     0.052439   121.218811
	   18 B(2,4,7)        =    121.232231    -0.000021    -0.060069   121.172162
	   19 B(3,2,4)        =    121.813404     0.000008     0.030742   121.844146
	   20 B(3,5,8)        =    120.161047     0.000001    -0.004164   120.156883
	   21 B(3,5,9)        =    117.645092    -0.000011    -0.028426   117.616666
	   22 B(4,7,8)        =    116.867379     0.000007     0.028683   116.896062
	   23 B(5,8,7)        =    122.394946     0.000002     0.004799   122.399745
	   24 B(5,8,10)       =    120.658435    -0.000004    -0.016232   120.642203
	   25 B(5,9,11)       =    110.191290     0.000008     0.039972   110.231262
	   26 B(5,9,12)       =    111.551945    -0.000004    -0.027745   111.524200
	   27 B(5,9,13)       =    110.191290     0.000008     0.039972   110.231262
	   28 B(6,4,7)        =    117.601397     0.000006     0.007630   117.609027
	   29 B(7,8,10)       =    116.946619     0.000002     0.011433   116.958052
	   30 B(8,5,9)        =    122.193862     0.000009     0.032590   122.226451
	   31 B(11,9,12)      =    108.606118    -0.000003    -0.021800   108.584318
	   32 B(11,9,13)      =    107.586836    -0.000005    -0.009659   107.577177
	   33 B(12,9,13)      =    108.606118    -0.000003    -0.021800   108.584318
	   34 D(1,2,3,5)      =    180.000000     0.000000     0.000000   180.000000
	   35 D(1,2,4,6)      =      0.000000     0.000000     0.000000     0.000000
	   36 D(1,2,4,7)      =    180.000000     0.000000     0.000000   180.000000
	   37 D(2,3,5,8)      =      0.000000    -0.000000     0.000000     0.000000
	   38 D(2,3,5,9)      =    180.000000    -0.000000     0.000000   180.000000
	   39 D(2,4,7,8)      =      0.000000    -0.000000     0.000000     0.000000
	   40 D(3,2,4,6)      =    180.000000     0.000000     0.000000   180.000000
	   41 D(3,2,4,7)      =      0.000000     0.000000     0.000000     0.000000
	   42 D(3,5,8,7)      =      0.000000     0.000000     0.000000     0.000000
	   43 D(3,5,8,10)     =    180.000000    -0.000000     0.000000   180.000000
	   44 D(3,5,9,11)     =     59.285890     0.000000     0.018825    59.304716
	   45 D(3,5,9,12)     =    180.000000     0.000000     0.000000   180.000000
	   46 D(3,5,9,13)     =    -59.285890    -0.000000    -0.018825   -59.304716
	   47 D(4,2,3,5)      =      0.000000     0.000000     0.000000     0.000000
	   48 D(4,7,8,5)      =      0.000000     0.000000     0.000000     0.000000
	   49 D(4,7,8,10)     =    180.000000     0.000000     0.000000   180.000000
	   50 D(6,4,7,8)      =    180.000000    -0.000000     0.000000   180.000000
	   51 D(7,8,5,9)      =    180.000000     0.000000     0.000000   180.000000
	   52 D(8,5,9,11)     =   -120.714110     0.000000     0.018825  -120.695285
	   53 D(8,5,9,12)     =      0.000000    -0.000000     0.000000     0.000000
	   54 D(8,5,9,13)     =    120.714110    -0.000000    -0.018826   120.695284
	   55 D(9,5,8,10)     =      0.000000     0.000000     0.000000     0.000000
	 ---------------------------------------------------------------------------

  ==> Convergence Check <==

  Measures of convergence in internal coordinates in au.
  Criteria marked as inactive (o), active & met (*), and active & unmet ( ).
  --------------------------------------------------------------------------------------------- ~
   Step     Total Energy     Delta E     MAX Force     RMS Force      MAX Disp      RMS Disp    ~
  --------------------------------------------------------------------------------------------- ~
    Convergence Criteria    1.00e-06 *    3.00e-04 *             o    1.20e-03 *             o  ~
  --------------------------------------------------------------------------------------------- ~
      1    -301.72362739   -3.02e+02      6.28e-04      1.54e-04 o    1.06e-03 *    4.25e-04 o  ~
  ---------------------------------------------------------------------------------------------

	Writing optimization data to binary file.
	Structure for next step:
	Cartesian Geometry (in Angstrom)
	    H    -1.5602923680  -2.1059488425  -0.0000000007
	    C    -1.0531922782  -1.1578571389  -0.0000000012
	    N     0.2641922711  -1.1787410168  -0.0000000039
	    C    -1.7649377455   0.0296918076   0.0000000015
	    C     0.8941017671  -0.0156508908  -0.0000000039
	    H    -2.8395865175   0.0349974354   0.0000000044
	    N    -1.1483343644   1.1946512239   0.0000000007
	    C     0.1691983738   1.1717493691  -0.0000000018
	    C     2.3986982550  -0.0372524888   0.0000000006
	    H     0.6731734967   2.1214317642  -0.0000000005
	    H     2.7661743919  -0.5619499832  -0.8748795657
	    H     2.8106388139   0.9648329875  -0.0000000005
	    H     2.7661743870  -0.5619499809   0.8748795709
			--------------------------
			 OPTKING Finished Execution 
			--------------------------

    Structure for next step:
    Molecular point group: c1
    Full point group: C1

    Geometry (in Angstrom), charge = 0, multiplicity = 1:

    H           -1.560272239512    -2.105964878852     0.000000000326
    C           -1.053172188479    -1.157873247656    -0.000000000151
    N            0.264212260270    -1.178757123955    -0.000000002892
    C           -1.764917601444     0.029675608203     0.000000002477
    C            0.894121708109    -0.015667086766    -0.000000002933
    H           -2.839566291401     0.034981235626     0.000000005435
    N           -1.148314267449     1.194634935500     0.000000001684
    C            0.169218370213     1.171733082502    -0.000000000804
    C            2.398718081098    -0.037268683109     0.000000001640
    H            0.673193454578     2.121415405052     0.000000000556
    H            2.766194189969    -0.561966137374    -0.874879497887
    H            2.810658608624     0.964816716712     0.000000000513
    H            2.766194185106    -0.561966135171     0.874879505120

gradient() will perform analytic gradient computation.

*** tstart() called on cx1-1-2-4.cx1.hpc.ic.ac.uk
*** at Tue Jul  5 16:26:06 2016


         ---------------------------------------------------------
                                   SCF
            by Justin Turney, Rob Parrish, and Andy Simmonett
                              RHF Reference
                        1 Threads,   2000 MiB Core
         ---------------------------------------------------------

  ==> Geometry <==

    Molecular point group: c1
    Full point group: C1

    Geometry (in Angstrom), charge = 0, multiplicity = 1:

       Center              X                  Y                   Z               Mass       
    ------------   -----------------  -----------------  -----------------  -----------------
           H         -1.560272239512    -2.105964878852     0.000000000326     1.007825032070
           C         -1.053172188479    -1.157873247656    -0.000000000151    12.000000000000
           N          0.264212260270    -1.178757123955    -0.000000002892    14.003074004780
           C         -1.764917601444     0.029675608203     0.000000002477    12.000000000000
           C          0.894121708109    -0.015667086766    -0.000000002933    12.000000000000
           H         -2.839566291401     0.034981235626     0.000000005435     1.007825032070
           N         -1.148314267449     1.194634935500     0.000000001684    14.003074004780
           C          0.169218370213     1.171733082502    -0.000000000804    12.000000000000
           C          2.398718081098    -0.037268683109     0.000000001640    12.000000000000
           H          0.673193454578     2.121415405052     0.000000000556     1.007825032070
           H          2.766194189969    -0.561966137374    -0.874879497887     1.007825032070
           H          2.810658608624     0.964816716712     0.000000000513     1.007825032070
           H          2.766194185106    -0.561966135171     0.874879505120     1.007825032070

  Running in c1 symmetry.

  Rotational constants: A =      0.20072  B =      0.09100  C =      0.06334 [cm^-1]
  Rotational constants: A =   6017.37344  B =   2728.06598  C =   1898.83043 [MHz]
  Nuclear repulsion =  278.073073281341351

  Charge       = 0
  Multiplicity = 1
  Electrons    = 50
  Nalpha       = 25
  Nbeta        = 25

  ==> Algorithm <==

  SCF Algorithm Type is DF.
  DIIS enabled.
  MOM disabled.
  Fractional occupation disabled.
  Guess Type is READ.
  Energy threshold   = 1.00e-08
  Density threshold  = 1.00e-08
  Integral threshold = 0.00e+00

  ==> Primary Basis <==

  Basis Set: 6-31G*
    Number of shells: 54
    Number of basis function: 117
    Number of Cartesian functions: 117
    Spherical Harmonics?: false
    Max angular momentum: 2

  ==> Pre-Iterations <==

   -------------------------------------------------------
    Irrep   Nso     Nmo     Nalpha   Nbeta   Ndocc  Nsocc
   -------------------------------------------------------
     A        117     117       0       0       0       0
   -------------------------------------------------------
    Total     117     117      25      25      25       0
   -------------------------------------------------------

 OEINTS: Overlap, kinetic, potential, dipole, and quadrupole integrals
         stored in file 35.

  ==> Integral Setup <==

  ==> DFJK: Density-Fitted J/K Matrices <==

    J tasked:                  Yes
    K tasked:                  Yes
    wK tasked:                  No
    OpenMP threads:              1
    Integrals threads:           1
    Memory (MB):              1430
    Algorithm:                Core
    Integral Cache:           NONE
    Schwarz Cutoff:          1E-12
    Fitting Condition:       1E-12

   => Auxiliary Basis Set <=

  Basis Set: 
    Number of shells: 222
    Number of basis function: 717
    Number of Cartesian functions: 717
    Spherical Harmonics?: false
    Max angular momentum: 3

  Minimum eigenvalue in the overlap matrix is 1.1795461759E-03.
  Using Symmetric Orthogonalization.
  SCF Guess: Reading in previously saved MOs, projecting if necessary.

  Using orbitals from previous SCF, no projection.
  Recomputing DOCC and SOCC from number of alpha and beta electrons from previous calculation.
              A 
    DOCC [    25 ]

  ==> Iterations <==

                           Total Energy        Delta E     RMS |[F,P]|

   @DF-RHF iter   0:  -301.72345639334532   -3.01723e+02   2.37478e-05 
   @DF-RHF iter   1:  -301.72362864689336   -1.72254e-04   4.21031e-06 
   @DF-RHF iter   2:  -301.72362874190327   -9.50099e-08   2.80437e-06 DIIS
   @DF-RHF iter   3:  -301.72362878777909   -4.58758e-08   3.84627e-07 DIIS
   @DF-RHF iter   4:  -301.72362879085352   -3.07443e-09   2.01208e-07 DIIS
   @DF-RHF iter   5:  -301.72362879162478   -7.71252e-10   8.78143e-08 DIIS
   @DF-RHF iter   6:  -301.72362879190922   -2.84444e-10   4.52090e-08 DIIS
   @DF-RHF iter   7:  -301.72362879198721   -7.79892e-11   1.54266e-08 DIIS
   @DF-RHF iter   8:  -301.72362879199437   -7.16227e-12   5.26066e-09 DIIS

  ==> Post-Iterations <==

    Orbital Energies (a.u.)
    -----------------------

    Doubly Occupied:                                                      

       1A    -15.587344     2A    -15.582418     3A    -11.284648  
       4A    -11.276985     5A    -11.272550     6A    -11.272505  
       7A    -11.229015     8A     -1.313970     9A     -1.222352  
      10A     -1.074161    11A     -0.973448    12A     -0.895885  
      13A     -0.855675    14A     -0.715665    15A     -0.710572  
      16A     -0.656074    17A     -0.603421    18A     -0.591710  
      19A     -0.558887    20A     -0.547999    21A     -0.538186  
      22A     -0.487067    23A     -0.429567    24A     -0.396548  
      25A     -0.346049  

    Virtual:                                                              

      26A      0.102790    27A      0.135803    28A      0.251409  
      29A      0.273117    30A      0.284140    31A      0.310910  
      32A      0.316636    33A      0.334362    34A      0.373294  
      35A      0.375692    36A      0.404177    37A      0.496868  
      38A      0.507904    39A      0.558647    40A      0.626057  
      41A      0.658929    42A      0.721899    43A      0.724524  
      44A      0.743248    45A      0.755159    46A      0.776215  
      47A      0.826505    48A      0.842965    49A      0.843115  
      50A      0.867957    51A      0.897096    52A      0.920004  
      53A      0.940765    54A      0.976813    55A      1.024034  
      56A      1.078695    57A      1.080437    58A      1.080539  
      59A      1.094079    60A      1.109522    61A      1.149826  
      62A      1.155767    63A      1.163058    64A      1.194842  
      65A      1.224304    66A      1.243379    67A      1.259145  
      68A      1.316437    69A      1.372702    70A      1.388999  
      71A      1.498607    72A      1.523045    73A      1.563432  
      74A      1.607366    75A      1.690243    76A      1.719746  
      77A      1.771863    78A      1.773827    79A      1.785741  
      80A      1.796178    81A      1.962277    82A      2.052885  
      83A      2.108061    84A      2.143252    85A      2.148589  
      86A      2.187710    87A      2.231395    88A      2.261248  
      89A      2.403173    90A      2.465537    91A      2.483151  
      92A      2.529813    93A      2.549410    94A      2.594356  
      95A      2.627064    96A      2.651715    97A      2.653061  
      98A      2.697805    99A      2.708423   100A      2.820067  
     101A      2.866809   102A      2.922258   103A      2.993446  
     104A      3.101236   105A      3.134317   106A      3.164374  
     107A      3.206969   108A      3.254730   109A      3.494432  
     110A      3.841359   111A      4.357978   112A      4.494459  
     113A      4.550396   114A      4.666639   115A      4.707213  
     116A      4.841205   117A      4.968233  

    Final Occupation by Irrep:
              A 
    DOCC [    25 ]

  Energy converged.

  @DF-RHF Final Energy:  -301.72362879199437

   => Energetics <=

    Nuclear Repulsion Energy =            278.0730732813413510
    One-Electron Energy =                -958.7480027956540880
    Two-Electron Energy =                 378.9513007223184218
    DFT Exchange-Correlation Energy =       0.0000000000000000
    Empirical Dispersion Energy =           0.0000000000000000
    PCM Polarization Energy =               0.0000000000000000
    EFP Energy =                            0.0000000000000000
    Total Energy =                       -301.7236287919942583

    Alert: EFP and PCM quantities not currently incorporated into SCF psivars.

Properties will be evaluated at   0.000000,   0.000000,   0.000000 Bohr
  ==> Properties <==


Properties computed using the SCF density matrix

  Nuclear Dipole Moment: (a.u.)
     X:     4.3303      Y:    -0.1019      Z:     0.0000

  Electronic Dipole Moment: (a.u.)
     X:    -4.1447      Y:     0.0364      Z:    -0.0000

  Dipole Moment: (a.u.)
     X:     0.1856      Y:    -0.0656      Z:     0.0000     Total:     0.1968

  Dipole Moment: (Debye)
     X:     0.4717      Y:    -0.1666      Z:     0.0000     Total:     0.5002


  Saving occupied orbitals to File 180.

*** tstop() called on cx1-1-2-4.cx1.hpc.ic.ac.uk at Tue Jul  5 16:26:12 2016
Module time:
	user time   =       6.01 seconds =       0.10 minutes
	system time =       0.02 seconds =       0.00 minutes
	total time  =          6 seconds =       0.10 minutes
Total time:
	user time   =      24.53 seconds =       0.41 minutes
	system time =       0.13 seconds =       0.00 minutes
	total time  =         26 seconds =       0.43 minutes

*** tstart() called on cx1-1-2-4.cx1.hpc.ic.ac.uk
*** at Tue Jul  5 16:26:12 2016


         ------------------------------------------------------------
                                   SCF GRAD                          
                          Rob Parrish, Justin Turney,                
                       Andy Simmonett, and Alex Sokolov              
         ------------------------------------------------------------

  ==> Geometry <==

    Molecular point group: c1
    Full point group: C1

    Geometry (in Angstrom), charge = 0, multiplicity = 1:

       Center              X                  Y                   Z               Mass       
    ------------   -----------------  -----------------  -----------------  -----------------
           H         -1.560272239512    -2.105964878852     0.000000000326     1.007825032070
           C         -1.053172188479    -1.157873247656    -0.000000000151    12.000000000000
           N          0.264212260270    -1.178757123955    -0.000000002892    14.003074004780
           C         -1.764917601444     0.029675608203     0.000000002477    12.000000000000
           C          0.894121708109    -0.015667086766    -0.000000002933    12.000000000000
           H         -2.839566291401     0.034981235626     0.000000005435     1.007825032070
           N         -1.148314267449     1.194634935500     0.000000001684    14.003074004780
           C          0.169218370213     1.171733082502    -0.000000000804    12.000000000000
           C          2.398718081098    -0.037268683109     0.000000001640    12.000000000000
           H          0.673193454578     2.121415405052     0.000000000556     1.007825032070
           H          2.766194189969    -0.561966137374    -0.874879497887     1.007825032070
           H          2.810658608624     0.964816716712     0.000000000513     1.007825032070
           H          2.766194185106    -0.561966135171     0.874879505120     1.007825032070

  Nuclear repulsion =  278.073073281341351

  ==> Basis Set <==

  Basis Set: 6-31G*
    Number of shells: 54
    Number of basis function: 117
    Number of Cartesian functions: 117
    Spherical Harmonics?: false
    Max angular momentum: 2

  ==> DFJKGrad: Density-Fitted SCF Gradients <==

    Gradient:                    1
    J tasked:                  Yes
    K tasked:                  Yes
    wK tasked:                  No
    OpenMP threads:              1
    Integrals threads:           1
    Memory (MB):              1430
    Schwarz Cutoff:          0E+00
    Fitting Condition:       1E-12

   => Auxiliary Basis Set <=

  Basis Set: 
    Number of shells: 222
    Number of basis function: 717
    Number of Cartesian functions: 717
    Spherical Harmonics?: false
    Max angular momentum: 3


  -Total Gradient:
     Atom            X                  Y                   Z
    ------   -----------------  -----------------  -----------------
       1       -0.000024056178     0.000013537286     0.000000000004
       2       -0.000102672801     0.000044382050     0.000000000094
       3        0.000176159507     0.000161819823     0.000000000010
       4       -0.000125558100    -0.000030666648     0.000000000068
       5        0.000013484556    -0.000138284892    -0.000000000540
       6       -0.000004795486    -0.000029397977     0.000000000012
       7        0.000071159781    -0.000067704860    -0.000000000013
       8       -0.000049484981     0.000085818588    -0.000000000046
       9        0.000048900366     0.000016703169     0.000000000116
      10        0.000041086762    -0.000034760096     0.000000000083
      11       -0.000003363405    -0.000003086700     0.000003892726
      12       -0.000037496858    -0.000015272778    -0.000000000104
      13       -0.000003363160    -0.000003086968    -0.000003892412


*** tstop() called on cx1-1-2-4.cx1.hpc.ic.ac.uk at Tue Jul  5 16:26:22 2016
Module time:
	user time   =       9.50 seconds =       0.16 minutes
	system time =       0.04 seconds =       0.00 minutes
	total time  =         10 seconds =       0.17 minutes
Total time:
	user time   =      34.03 seconds =       0.57 minutes
	system time =       0.17 seconds =       0.00 minutes
	total time  =         36 seconds =       0.60 minutes
CURRENT ENERGY: -301.7236287920

			-----------------------------------------
			 OPTKING 2.0: for geometry optimizations 
			  - R.A. King,  Bethel University        
			-----------------------------------------

	Previous internal coordinate definitions found.
	---Fragment 1 Geometry and Gradient---
	 H          -2.9484872254       -3.9796968665        0.0000000006
	 C          -1.9902070070       -2.1880633347       -0.0000000003
	 N           0.4992888129       -2.2275281415       -0.0000000055
	 C          -3.3352109138        0.0560787723        0.0000000047
	 C           1.6896451578       -0.0296065033       -0.0000000055
	 H          -5.3660026269        0.0661049551        0.0000000103
	 N          -2.1699994800        2.2575328569        0.0000000032
	 C           0.3197763764        2.2142546268       -0.0000000015
	 C           4.5329202433       -0.0704276044        0.0000000031
	 H           1.2721512636        4.0088941296        0.0000000010
	 H           5.2273494494       -1.0619620956       -1.6532826503
	 H           5.3113750233        1.8232393630        0.0000000010
	 H           5.2273494402       -1.0619620914        1.6532826640
	            -0.0000240562        0.0000135373        0.0000000000
	            -0.0001026728        0.0000443820        0.0000000001
	             0.0001761595        0.0001618198        0.0000000000
	            -0.0001255581       -0.0000306666        0.0000000001
	             0.0000134846       -0.0001382849       -0.0000000005
	            -0.0000047955       -0.0000293980        0.0000000000
	             0.0000711598       -0.0000677049       -0.0000000000
	            -0.0000494850        0.0000858186       -0.0000000000
	             0.0000489004        0.0000167032        0.0000000001
	             0.0000410868       -0.0000347601        0.0000000001
	            -0.0000033634       -0.0000030867        0.0000038927
	            -0.0000374969       -0.0000152728       -0.0000000001
	            -0.0000033632       -0.0000030870       -0.0000038924

	---Fragment 1 Intrafragment Coordinates---
	 - Coordinate -           - BOHR/RAD -       - ANG/DEG -
	 R(1,2)           =         2.031810	       1.075188
	 R(2,3)           =         2.489809	       1.317550
	 R(2,4)           =         2.616335	       1.384505
	 R(3,5)           =         2.499562	       1.322711
	 R(4,6)           =         2.030816	       1.074662
	 R(4,7)           =         2.490807	       1.318078
	 R(5,8)           =         2.628964	       1.391188
	 R(5,9)           =         2.843568	       1.504752
	 R(7,8)           =         2.490152	       1.317732
	 R(8,10)          =         2.031686	       1.075122
	 R(9,11)          =         2.049077	       1.084325
	 R(9,12)          =         2.047429	       1.083453
	 R(9,13)          =         2.049077	       1.084325
	 B(1,2,3)         =         2.046093	     117.232514
	 B(1,2,4)         =         2.110510	     120.923340
	 B(2,3,5)         =         2.051303	     117.531002
	 B(2,4,6)         =         2.115667	     121.218811
	 B(2,4,7)         =         2.114853	     121.172162
	 B(3,2,4)         =         2.126582	     121.844146
	 B(3,5,8)         =         2.097133	     120.156883
	 B(3,5,9)         =         2.052798	     117.616666
	 B(4,7,8)         =         2.040221	     116.896062
	 B(5,8,7)         =         2.136279	     122.399745
	 B(5,8,10)        =         2.105604	     120.642203
	 B(5,9,11)        =         1.923898	     110.231262
	 B(5,9,12)        =         1.946464	     111.524200
	 B(5,9,13)        =         1.923898	     110.231262
	 B(6,4,7)         =         2.052665	     117.609027
	 B(7,8,10)        =         2.041303	     116.958052
	 B(8,5,9)         =         2.133254	     122.226451
	 B(11,9,12)       =         1.895154	     108.584318
	 B(11,9,13)       =         1.877576	     107.577177
	 B(12,9,13)       =         1.895154	     108.584318
	 D(1,2,3,5)       =         3.141593	     180.000000
	 D(1,2,4,6)       =         0.000000	       0.000000
	 D(1,2,4,7)       =         3.141593	     180.000000
	 D(2,3,5,8)       =        -0.000000	      -0.000000
	 D(2,3,5,9)       =         3.141593	     180.000000
	 D(2,4,7,8)       =        -0.000000	      -0.000000
	 D(3,2,4,6)       =         3.141593	     180.000000
	 D(3,2,4,7)       =         0.000000	       0.000000
	 D(3,5,8,7)       =         0.000000	       0.000000
	 D(3,5,8,10)      =         3.141593	     180.000000
	 D(3,5,9,11)      =         1.035063	      59.304716
	 D(3,5,9,12)      =         3.141593	     180.000000
	 D(3,5,9,13)      =        -1.035063	     -59.304716
	 D(4,2,3,5)       =         0.000000	       0.000000
	 D(4,7,8,5)       =         0.000000	       0.000000
	 D(4,7,8,10)      =         3.141593	     180.000000
	 D(6,4,7,8)       =         3.141593	     180.000000
	 D(7,8,5,9)       =         3.141593	     180.000000
	 D(8,5,9,11)      =        -2.106530	    -120.695285
	 D(8,5,9,12)      =        -0.000000	      -0.000000
	 D(8,5,9,13)      =         2.106530	     120.695284
	 D(9,5,8,10)      =         0.000000	       0.000000

	Current energy   :      -301.7236287920

	Energy change for the previous step:
		Projected    :        -0.0000030661
		Actual       :        -0.0000014013

	Performing BFGS update.
	Previous computed or guess Hessian on step 1.
	Steps to be used in Hessian update: 1
	Taking RFO optimization step.
	Going to follow RFO solution 1.
	Using RFO vector 1.
	Norm of target step-size    0.00086
	Projected energy change by RFO approximation:        -0.0000002325

	Back-transformation to cartesian coordinates...
	Successfully converged to displaced geometry.

	--- Internal Coordinate Step in ANG or DEG, aJ/ANG or AJ/DEG ---
	 ---------------------------------------------------------------------------
	   Coordinate                Previous        Force       Change         New 
	   ----------                --------       ------       ------       ------
	    1 R(1,2)          =      1.075188     0.000005     0.000008     1.075195
	    2 R(2,3)          =      1.317550    -0.001272    -0.000097     1.317453
	    3 R(2,4)          =      1.384505     0.000422     0.000045     1.384550
	    4 R(3,5)          =      1.322711     0.001122     0.000111     1.322823
	    5 R(4,6)          =      1.074662    -0.000038    -0.000026     1.074636
	    6 R(4,7)          =      1.318078    -0.000275    -0.000015     1.318063
	    7 R(5,8)          =      1.391188    -0.000168    -0.000047     1.391141
	    8 R(5,9)          =      1.504752    -0.000039    -0.000029     1.504722
	    9 R(7,8)          =      1.317732    -0.000250     0.000007     1.317739
	   10 R(8,10)         =      1.075122     0.000094    -0.000001     1.075121
	   11 R(9,11)         =      1.084325     0.000023    -0.000001     1.084324
	   12 R(9,12)         =      1.083453     0.000234     0.000041     1.083494
	   13 R(9,13)         =      1.084325     0.000023    -0.000001     1.084324
	   14 B(1,2,3)        =    117.232514    -0.000002    -0.005887   117.226627
	   15 B(1,2,4)        =    120.923340     0.000003     0.009619   120.932959
	   16 B(2,3,5)        =    117.531002    -0.000004    -0.009270   117.521732
	   17 B(2,4,6)        =    121.218811    -0.000001     0.002634   121.221444
	   18 B(2,4,7)        =    121.172162     0.000007     0.016488   121.188651
	   19 B(3,2,4)        =    121.844146    -0.000001    -0.003732   121.840414
	   20 B(3,5,8)        =    120.156883     0.000003     0.009351   120.166234
	   21 B(3,5,9)        =    117.616666    -0.000003    -0.009970   117.606696
	   22 B(4,7,8)        =    116.896062    -0.000005    -0.014753   116.881309
	   23 B(5,8,7)        =    122.399745     0.000000     0.001915   122.401660
	   24 B(5,8,10)       =    120.642203     0.000004     0.015494   120.657697
	   25 B(5,9,11)       =    110.231262    -0.000000     0.000605   110.231867
	   26 B(5,9,12)       =    111.524200     0.000003     0.012263   111.536463
	   27 B(5,9,13)       =    110.231262    -0.000000     0.000605   110.231867
	   28 B(6,4,7)        =    117.609027    -0.000006    -0.019122   117.589905
	   29 B(7,8,10)       =    116.958052    -0.000004    -0.017409   116.940643
	   30 B(8,5,9)        =    122.226451    -0.000000     0.000619   122.227070
	   31 B(11,9,12)      =    108.584318    -0.000001    -0.006216   108.578103
	   32 B(11,9,13)      =    107.577177     0.000000    -0.001724   107.575452
	   33 B(12,9,13)      =    108.584318    -0.000001    -0.006216   108.578102
	   34 D(1,2,3,5)      =    180.000000    -0.000000     0.000000   180.000000
	   35 D(1,2,4,6)      =      0.000000    -0.000000     0.000000     0.000000
	   36 D(1,2,4,7)      =    180.000000    -0.000000     0.000000   180.000000
	   37 D(2,3,5,8)      =      0.000000     0.000000     0.000000     0.000000
	   38 D(2,3,5,9)      =    180.000000     0.000000     0.000000   180.000000
	   39 D(2,4,7,8)      =      0.000000     0.000000     0.000000     0.000000
	   40 D(3,2,4,6)      =    180.000000    -0.000000     0.000000   180.000000
	   41 D(3,2,4,7)      =      0.000000    -0.000000     0.000000     0.000000
	   42 D(3,5,8,7)      =      0.000000    -0.000000     0.000000     0.000000
	   43 D(3,5,8,10)     =    180.000000     0.000000     0.000000   180.000000
	   44 D(3,5,9,11)     =     59.304716    -0.000000    -0.000688    59.304027
	   45 D(3,5,9,12)     =    180.000000     0.000000     0.000000   180.000000
	   46 D(3,5,9,13)     =    -59.304716     0.000000     0.000687   -59.304028
	   47 D(4,2,3,5)      =      0.000000    -0.000000     0.000000     0.000000
	   48 D(4,7,8,5)      =      0.000000    -0.000000     0.000000     0.000000
	   49 D(4,7,8,10)     =    180.000000    -0.000000     0.000000   180.000000
	   50 D(6,4,7,8)      =    180.000000     0.000000     0.000000   180.000000
	   51 D(7,8,5,9)      =    180.000000    -0.000000     0.000000   180.000000
	   52 D(8,5,9,11)     =   -120.695285    -0.000000    -0.000687  -120.695972
	   53 D(8,5,9,12)     =      0.000000     0.000000     0.000000     0.000000
	   54 D(8,5,9,13)     =    120.695284     0.000000     0.000688   120.695972
	   55 D(9,5,8,10)     =      0.000000    -0.000000     0.000000     0.000000
	 ---------------------------------------------------------------------------

  ==> Convergence Check <==

  Measures of convergence in internal coordinates in au.
  Criteria marked as inactive (o), active & met (*), and active & unmet ( ).
  ---------------------------------------------------------------------------------------------
   Step     Total Energy     Delta E     MAX Force     RMS Force      MAX Disp      RMS Disp   
  ---------------------------------------------------------------------------------------------
    Convergence Criteria    1.00e-06 *    3.00e-04 *             o    1.20e-03 *             o
  ---------------------------------------------------------------------------------------------
      2    -301.72362879   -1.40e-06      1.54e-04 *    3.91e-05 o    3.34e-04 *    1.15e-04 o  ~
  ---------------------------------------------------------------------------------------------


  **** Optimization is complete! (in 2 steps) ****

  ==> Optimization Summary <==

  Measures of convergence in internal coordinates in au.
  --------------------------------------------------------------------------------------------------------------- ~
   Step         Total Energy             Delta E       MAX Force       RMS Force        MAX Disp        RMS Disp  ~
  --------------------------------------------------------------------------------------------------------------- ~
      1    -301.723627390695   -301.723627390695      0.00062750      0.00015399      0.00106269      0.00042466  ~
      2    -301.723628791994     -0.000001401299      0.00015443      0.00003913      0.00033375      0.00011536  ~
  --------------------------------------------------------------------------------------------------------------- ~

	Writing optimization data to binary file.
	Final energy is   -301.7236287919944
	Final (previous) structure:
	Cartesian Geometry (in Angstrom)
	    H    -1.5602723587  -2.1059650397   0.0000000003
	    C    -1.0531722689  -1.1578733361  -0.0000000002
	    N     0.2642122804  -1.1787572140  -0.0000000029
	    C    -1.7649177362   0.0296756105   0.0000000025
	    C     0.8941217764  -0.0156670880  -0.0000000029
	    H    -2.8395665082   0.0349812383   0.0000000054
	    N    -1.1483143551   1.1946350267   0.0000000017
	    C     0.1692183831   1.1717331720  -0.0000000008
	    C     2.3987182643  -0.0372686860   0.0000000016
	    H     0.6731935060   2.1214155671   0.0000000006
	    H     2.7661944012  -0.5619661803  -0.8748795647
	    H     2.8106588233   0.9648167904   0.0000000005
	    H     2.7661943963  -0.5619661781   0.8748795719
	Saving final (previous) structure.
			--------------------------
			 OPTKING Finished Execution 
			--------------------------

    Final optimized geometry and variables:
    Molecular point group: c1
    Full point group: C1

    Geometry (in Angstrom), charge = 0, multiplicity = 1:

    H           -1.560272239512    -2.105964878852     0.000000000326
    C           -1.053172188479    -1.157873247656    -0.000000000151
    N            0.264212260270    -1.178757123955    -0.000000002892
    C           -1.764917601444     0.029675608203     0.000000002477
    C            0.894121708109    -0.015667086766    -0.000000002933
    H           -2.839566291401     0.034981235626     0.000000005435
    N           -1.148314267449     1.194634935500     0.000000001684
    C            0.169218370213     1.171733082502    -0.000000000804
    C            2.398718081098    -0.037268683109     0.000000001640
    H            0.673193454578     2.121415405052     0.000000000556
    H            2.766194189969    -0.561966137374    -0.874879497887
    H            2.810658608624     0.964816716712     0.000000000513
    H            2.766194185106    -0.561966135171     0.874879505120

	Cleaning optimization helper files.


Properties will be evaluated at   0.000000,   0.000000,   0.000000 Bohr

Properties computed using the  density matrix

  Nuclear Dipole Moment: (a.u.)
     X:     4.3303      Y:    -0.1019      Z:     0.0000

  Electronic Dipole Moment: (a.u.)
     X:    -4.1447      Y:     0.0364      Z:    -0.0000

  Dipole Moment: (a.u.)
     X:     0.1856      Y:    -0.0656      Z:     0.0000     Total:     0.1968

  Dipole Moment: (Debye)
     X:     0.4717      Y:    -0.1666      Z:     0.0000     Total:     0.5002

  Quadrupole Moment: (Debye Ang)
    XX:   -36.1874     YY:   -43.9884     ZZ:   -42.2390
    XY:     6.1183     XZ:    -0.0000     YZ:    -0.0000

  Traceless Quadrupole Moment: (Debye Ang)
    XX:     4.6175     YY:    -3.1835     ZZ:    -1.4341
    XY:     6.1183     XZ:    -0.0000     YZ:    -0.0000

  Mulliken Charges: (a.u.)
   Center  Symbol    Alpha    Beta     Spin     Total
       1     H     0.39363  0.39363  0.00000  0.21273
       2     C     2.99030  2.99030  0.00000  0.01940
       3     N     3.75078  3.75078  0.00000 -0.50156
       4     C     2.99777  2.99777  0.00000  0.00445
       5     C     2.87847  2.87847  0.00000  0.24307
       6     H     0.39415  0.39415  0.00000  0.21170
       7     N     3.72826  3.72826  0.00000 -0.45653
       8     C     3.00040  3.00040  0.00000 -0.00080
       9     C     3.25179  3.25179  0.00000 -0.50358
      10     H     0.39531  0.39531  0.00000  0.20939
      11     H     0.40274  0.40274  0.00000  0.19451
      12     H     0.41365  0.41365  0.00000  0.17270
      13     H     0.40274  0.40274  0.00000  0.19451

   Total alpha = 25.00000, Total beta = 25.00000, Total charge =  0.00000


*** PSI4 exiting successfully. Buy a developer a beer!
