    -----------------------------------------------------------------------
          Psi4: An Open-Source Ab Initio Electronic Structure Package
                              Psi4 (no tag) Driver

                          Git: Rev {detached?}  

    J. M. Turney, A. C. Simmonett, R. M. Parrish, E. G. Hohenstein,
    F. A. Evangelista, J. T. Fermann, B. J. Mintz, L. A. Burns, J. J. Wilke,
    M. L. Abrams, N. J. Russ, M. L. Leininger, C. L. Janssen, E. T. Seidl,
    W. D. Allen, H. F. Schaefer, R. A. King, E. F. Valeev, C. D. Sherrill,
    and T. D. Crawford, WIREs Comput. Mol. Sci. 2, 556-565 (2012)
    (doi: 10.1002/wcms.93)

                         Additional Contributions by
    A. E. DePrince, M. Saitow, U. Bozkaya, A. Yu. Sokolov
    -----------------------------------------------------------------------


    Psi4 started on: Tue Jul  5 18:20:10 2016

    Process ID:   6514
    PSI4DATADIR: /export131/home/mjharvey/miniconda3/share
    Memory level set to 256.000 MB

  ==> Input File <==

--------------------------------------------------------------------------
set {
	reference rhf
	basis 6-31G*
}


set_num_threads( 1 )
memory 2 gb

molecule MOL {
0 1

H	 -2.675985	 0.291120	 0.753399
O	 -1.732576	 0.305735	 0.683843
C	 -1.350486	 1.104354	 -0.407151
C	 -1.542612	 2.596021	 -0.156663
H	 -0.301791	 0.893698	 -0.573090
H	 -1.886787	 0.803070	 -1.306256
C	 -0.993384	 3.076992	 1.188656
H	 -1.064661	 3.145539	 -0.963483
H	 -2.607792	 2.814568	 -0.211398
C	 -1.784977	 2.530355	 2.380036
H	 -1.006471	 4.163109	 1.211962
H	 0.049401	 2.773713	 1.283328
C	 -2.079727	 1.026992	 2.322043
H	 -1.249131	 2.756757	 3.300068
H	 -2.730846	 3.064455	 2.441433
C	 -3.034785	 0.600176	 1.203932
H	 -1.137288	 0.498723	 2.193375
H	 -2.479247	 0.701808	 3.281457
C	 -4.465221	 1.099239	 1.418936
H	 -3.041398	 -0.486566	 1.132797
H	 -2.675749	 0.966087	 0.245025
C	 -5.411106	 0.710962	 0.283063
H	 -4.847259	 0.703375	 2.357459
H	 -4.456195	 2.181939	 1.526468
H	 -5.467273	 -0.368187	 0.171231
H	 -6.416738	 1.077069	 0.465559
H	 -5.076338	 1.123259	 -0.664726

	symmetry c1
}
set optking {
	frozen_dihedral = ("
		14 10 7 4,
		14 10 13 16,
		10 7 4 8,
		8 4 3 2,
		10 13 16 20,
		4 3 2 1
	")
}

ee = energy('scf')
oeprop('DIPOLE', 'QUADRUPOLE', 'MULLIKEN_CHARGES')
f=open( 'psi4out.xyz', 'w' )
f.write( "27  " )
f.write( str(ee) + "\n" )
f.write( MOL.save_string_xyz() )
f.close()
--------------------------------------------------------------------------

  Memory set to   2.000 GiB by Python script.

*** tstart() called on cx1-3-4-2.cx1.hpc.ic.ac.uk
*** at Tue Jul  5 18:20:11 2016


         ---------------------------------------------------------
                                   SCF
            by Justin Turney, Rob Parrish, and Andy Simmonett
                              RHF Reference
                        1 Threads,   2000 MiB Core
         ---------------------------------------------------------

  ==> Geometry <==

    Molecular point group: c1
    Full point group: C1

    Geometry (in Angstrom), charge = 0, multiplicity = 1:

       Center              X                  Y                   Z               Mass       
    ------------   -----------------  -----------------  -----------------  -----------------
           H         -0.177705490620    -1.131601255603    -0.218717211083     1.007825032070
           O          0.765703509380    -1.116986255603    -0.288273211083    15.994914619560
           C          1.147793509380    -0.318367255603    -1.379267211083    12.000000000000
           C          0.955667509380     1.173299744397    -1.128779211083    12.000000000000
           H          2.196488509380    -0.529023255603    -1.545206211083     1.007825032070
           H          0.611492509380    -0.619651255603    -2.278372211083     1.007825032070
           C          1.504895509380     1.654270744397     0.216539788917    12.000000000000
           H          1.433618509380     1.722817744397    -1.935599211083     1.007825032070
           H         -0.109512490620     1.391846744397    -1.183514211083     1.007825032070
           C          0.713302509380     1.107633744397     1.407919788917    12.000000000000
           H          1.491808509380     2.740387744397     0.239845788917     1.007825032070
           H          2.547680509380     1.350991744397     0.311211788917     1.007825032070
           C          0.418552509380    -0.395729255603     1.349926788917    12.000000000000
           H          1.249148509380     1.334035744397     2.327951788917     1.007825032070
           H         -0.232566490620     1.641733744397     1.469316788917     1.007825032070
           C         -0.536505490620    -0.822545255603     0.231815788917    12.000000000000
           H          1.360991509380    -0.923998255603     1.221258788917     1.007825032070
           H          0.019032509380    -0.720913255603     2.309340788917     1.007825032070
           C         -1.966941490620    -0.323482255603     0.446819788917    12.000000000000
           H         -0.543118490620    -1.909287255603     0.160680788917     1.007825032070
           H         -0.177469490620    -0.456634255603    -0.727091211083     1.007825032070
           C         -2.912826490620    -0.711759255603    -0.689053211083    12.000000000000
           H         -2.348979490620    -0.719346255603     1.385342788917     1.007825032070
           H         -1.957915490620     0.759217744397     0.554351788917     1.007825032070
           H         -2.968993490620    -1.790908255603    -0.800885211083     1.007825032070
           H         -3.918458490620    -0.345652255603    -0.506557211083     1.007825032070
           H         -2.578058490620    -0.299462255603    -1.636842211083     1.007825032070

  Running in c1 symmetry.

  Rotational constants: A =      0.07638  B =      0.04086  C =      0.03687 [cm^-1]
  Rotational constants: A =   2289.87311  B =   1225.05183  C =   1105.24648 [MHz]
  Nuclear repulsion =  552.833728145409395

  Charge       = 0
  Multiplicity = 1
  Electrons    = 74
  Nalpha       = 37
  Nbeta        = 37

  ==> Algorithm <==

  SCF Algorithm Type is DF.
  DIIS enabled.
  MOM disabled.
  Fractional occupation disabled.
  Guess Type is CORE.
  Energy threshold   = 1.00e-06
  Density threshold  = 1.00e-06
  Integral threshold = 0.00e+00

  ==> Primary Basis <==

  Basis Set: 6-31G*
    Number of shells: 90
    Number of basis function: 171
    Number of Cartesian functions: 171
    Spherical Harmonics?: false
    Max angular momentum: 2

  ==> Pre-Iterations <==

   -------------------------------------------------------
    Irrep   Nso     Nmo     Nalpha   Nbeta   Ndocc  Nsocc
   -------------------------------------------------------
     A        171     171       0       0       0       0
   -------------------------------------------------------
    Total     171     171      37      37      37       0
   -------------------------------------------------------

 OEINTS: Overlap, kinetic, potential, dipole, and quadrupole integrals
         stored in file 35.

  ==> Integral Setup <==

  ==> DFJK: Density-Fitted J/K Matrices <==

    J tasked:                  Yes
    K tasked:                  Yes
    wK tasked:                  No
    OpenMP threads:              1
    Integrals threads:           1
    Memory (MB):              1430
    Algorithm:                Core
    Integral Cache:           NONE
    Schwarz Cutoff:          1E-12
    Fitting Condition:       1E-12

   => Auxiliary Basis Set <=

  Basis Set: 
    Number of shells: 378
    Number of basis function: 1179
    Number of Cartesian functions: 1179
    Spherical Harmonics?: false
    Max angular momentum: 3

  Minimum eigenvalue in the overlap matrix is 1.3957766912E-03.
  Using Symmetric Orthogonalization.
  SCF Guess: Core (One-Electron) Hamiltonian.

  ==> Iterations <==

                           Total Energy        Delta E     RMS |[F,P]|

   @DF-RHF iter   1:  -245.39111776846119   -2.45391e+02   7.13283e-02 
   @DF-RHF iter   2:  -139.86141091042271    1.05530e+02   6.92318e-02 DIIS
   @DF-RHF iter   3:  -299.28539174068044   -1.59424e+02   4.85004e-02 DIIS
   @DF-RHF iter   4:  -289.84059156536546    9.44480e+00   6.02956e-02 DIIS
   @DF-RHF iter   5:  -386.54735465632098   -9.67068e+01   5.82426e-03 DIIS
   @DF-RHF iter   6:  -386.99229163642963   -4.44937e-01   2.90384e-03 DIIS
   @DF-RHF iter   7:  -387.10572109894758   -1.13429e-01   5.72210e-04 DIIS
   @DF-RHF iter   8:  -387.11143151369367   -5.71041e-03   2.61909e-04 DIIS
   @DF-RHF iter   9:  -387.11264457005734   -1.21306e-03   9.88225e-05 DIIS
   @DF-RHF iter  10:  -387.11285692824083   -2.12358e-04   3.17006e-05 DIIS
   @DF-RHF iter  11:  -387.11289679760159   -3.98694e-05   1.30393e-05 DIIS
   @DF-RHF iter  12:  -387.11290640394145   -9.60634e-06   6.90311e-06 DIIS
   @DF-RHF iter  13:  -387.11290932190752   -2.91797e-06   2.18507e-06 DIIS
   @DF-RHF iter  14:  -387.11290968701292   -3.65105e-07   6.54197e-07 DIIS

  ==> Post-Iterations <==

    Orbital Energies (a.u.)
    -----------------------

    Doubly Occupied:                                                      

       1A    -20.496145     2A    -11.279002     3A    -11.269099  
       4A    -11.227962     5A    -11.219206     6A    -11.210541  
       7A    -11.198953     8A    -11.192571     9A    -11.174832  
      10A     -1.642599    11A     -1.146918    12A     -1.080932  
      13A     -1.022245    14A     -1.002786    15A     -0.919316  
      16A     -0.877350    17A     -0.837729    18A     -0.784511  
      19A     -0.751535    20A     -0.671717    21A     -0.657293  
      22A     -0.636025    23A     -0.612074    24A     -0.599350  
      25A     -0.587766    26A     -0.558250    27A     -0.553231  
      28A     -0.525638    29A     -0.501883    30A     -0.489254  
      31A     -0.473041    32A     -0.465940    33A     -0.460217  
      34A     -0.449475    35A     -0.440655    36A     -0.351599  
      37A     -0.249836  

    Virtual:                                                              

      38A      0.195328    39A      0.237147    40A      0.243344  
      41A      0.255706    42A      0.278279    43A      0.294336  
      44A      0.301646    45A      0.304219    46A      0.316773  
      47A      0.319376    48A      0.331957    49A      0.337302  
      50A      0.344328    51A      0.363034    52A      0.371746  
      53A      0.384947    54A      0.387646    55A      0.397511  
      56A      0.407217    57A      0.434631    58A      0.440134  
      59A      0.454802    60A      0.463861    61A      0.491794  
      62A      0.507454    63A      0.573860    64A      0.691070  
      65A      0.706476    66A      0.718832    67A      0.726474  
      68A      0.751543    69A      0.763540    70A      0.783334  
      71A      0.797886    72A      0.860048    73A      0.864470  
      74A      0.890143    75A      0.903317    76A      0.930233  
      77A      0.952188    78A      0.958662    79A      0.982552  
      80A      0.986982    81A      1.015160    82A      1.054093  
      83A      1.087671    84A      1.091189    85A      1.104800  
      86A      1.113985    87A      1.136818    88A      1.148901  
      89A      1.152984    90A      1.159255    91A      1.172999  
      92A      1.184160    93A      1.191124    94A      1.206685  
      95A      1.214819    96A      1.231743    97A      1.242291  
      98A      1.249547    99A      1.270329   100A      1.273690  
     101A      1.280449   102A      1.294217   103A      1.319680  
     104A      1.373170   105A      1.418504   106A      1.443655  
     107A      1.519680   108A      1.550879   109A      1.607024  
     110A      1.624393   111A      1.675796   112A      1.734776  
     113A      1.740138   114A      1.786732   115A      1.787653  
     116A      1.840338   117A      1.895699   118A      1.936688  
     119A      1.942965   120A      1.972205   121A      2.028547  
     122A      2.080918   123A      2.095074   124A      2.118910  
     125A      2.179168   126A      2.195915   127A      2.237254  
     128A      2.245138   129A      2.259727   130A      2.290673  
     131A      2.315553   132A      2.331435   133A      2.375895  
     134A      2.384589   135A      2.389643   136A      2.442903  
     137A      2.481097   138A      2.540448   139A      2.562781  
     140A      2.579827   141A      2.639856   142A      2.651592  
     143A      2.690433   144A      2.695277   145A      2.719583  
     146A      2.736956   147A      2.744910   148A      2.758184  
     149A      2.788568   150A      2.805050   151A      2.813572  
     152A      2.866459   153A      2.923292   154A      2.988015  
     155A      3.012424   156A      3.037208   157A      3.065070  
     158A      3.120772   159A      3.162752   160A      3.263746  
     161A      3.546016   162A      4.541513   163A      4.588538  
     164A      4.676978   165A      4.731733   166A      4.805592  
     167A      4.873645   168A      4.957924   169A      4.996887  
     170A      5.068174   171A      5.154305  

    Final Occupation by Irrep:
              A 
    DOCC [    37 ]

  Energy converged.

  @DF-RHF Final Energy:  -387.11290968701292

   => Energetics <=

    Nuclear Repulsion Energy =            552.8337281454093954
    One-Electron Energy =               -1620.6582953888303109
    Two-Electron Energy =                 680.7116575564075447
    DFT Exchange-Correlation Energy =       0.0000000000000000
    Empirical Dispersion Energy =           0.0000000000000000
    PCM Polarization Energy =               0.0000000000000000
    EFP Energy =                            0.0000000000000000
    Total Energy =                       -387.1129096870133708

    Alert: EFP and PCM quantities not currently incorporated into SCF psivars.

Properties will be evaluated at   0.000000,   0.000000,   0.000000 Bohr
  ==> Properties <==


Properties computed using the SCF density matrix

  Nuclear Dipole Moment: (a.u.)
     X:    -3.8423      Y:     1.3957      Z:    -0.8015

  Electronic Dipole Moment: (a.u.)
     X:     4.2192      Y:    -1.2195      Z:     0.2060

  Dipole Moment: (a.u.)
     X:     0.3769      Y:     0.1762      Z:    -0.5955     Total:     0.7265

  Dipole Moment: (Debye)
     X:     0.9580      Y:     0.4480      Z:    -1.5137     Total:     1.8465


  Saving occupied orbitals to File 180.

*** tstop() called on cx1-3-4-2.cx1.hpc.ic.ac.uk at Tue Jul  5 18:20:45 2016
Module time:
	user time   =      33.02 seconds =       0.55 minutes
	system time =       0.29 seconds =       0.00 minutes
	total time  =         34 seconds =       0.57 minutes
Total time:
	user time   =      33.02 seconds =       0.55 minutes
	system time =       0.29 seconds =       0.00 minutes
	total time  =         34 seconds =       0.57 minutes


Properties will be evaluated at   0.000000,   0.000000,   0.000000 Bohr

Properties computed using the  density matrix

  Nuclear Dipole Moment: (a.u.)
     X:    -3.8423      Y:     1.3957      Z:    -0.8015

  Electronic Dipole Moment: (a.u.)
     X:     4.2192      Y:    -1.2195      Z:     0.2060

  Dipole Moment: (a.u.)
     X:     0.3769      Y:     0.1762      Z:    -0.5955     Total:     0.7265

  Dipole Moment: (Debye)
     X:     0.9580      Y:     0.4480      Z:    -1.5137     Total:     1.8465

  Quadrupole Moment: (Debye Ang)
    XX:   -62.3409     YY:   -59.8929     ZZ:   -60.4237
    XY:     1.5848     XZ:    -1.2914     YZ:    -0.0767

  Traceless Quadrupole Moment: (Debye Ang)
    XX:    -1.4551     YY:     0.9929     ZZ:     0.4621
    XY:     1.5848     XZ:    -1.2914     YZ:    -0.0767

  Mulliken Charges: (a.u.)
   Center  Symbol    Alpha    Beta     Spin     Total
       1     H     0.42101  0.42101  0.00000  0.15797
       2     O     4.28261  4.28261  0.00000 -0.56522
       3     C     3.07299  3.07299  0.00000 -0.14598
       4     C     3.19051  3.19051  0.00000 -0.38103
       5     H     0.38844  0.38844  0.00000  0.22311
       6     H     0.40824  0.40824  0.00000  0.18353
       7     C     3.15078  3.15078  0.00000 -0.30155
       8     H     0.41138  0.41138  0.00000  0.17724
       9     H     0.40434  0.40434  0.00000  0.19133
      10     C     3.15120  3.15120  0.00000 -0.30240
      11     H     0.41579  0.41579  0.00000  0.16842
      12     H     0.42277  0.42277  0.00000  0.15446
      13     C     3.16102  3.16102  0.00000 -0.32205
      14     H     0.41824  0.41824  0.00000  0.16352
      15     H     0.42092  0.42092  0.00000  0.15816
      16     C     3.10368  3.10368  0.00000 -0.20736
      17     H     0.39208  0.39208  0.00000  0.21583
      18     H     0.43822  0.43822  0.00000  0.12356
      19     C     3.16212  3.16212  0.00000 -0.32424
      20     H     0.37277  0.37277  0.00000  0.25446
      21     H     0.42268  0.42268  0.00000  0.15463
      22     C     3.24327  3.24327  0.00000 -0.48654
      23     H     0.43594  0.43594  0.00000  0.12813
      24     H     0.43136  0.43136  0.00000  0.13728
      25     H     0.42959  0.42959  0.00000  0.14082
      26     H     0.41814  0.41814  0.00000  0.16373
      27     H     0.42991  0.42991  0.00000  0.14017

   Total alpha = 37.00000, Total beta = 37.00000, Total charge =  0.00000


*** PSI4 exiting successfully. Buy a developer a beer!
