    -----------------------------------------------------------------------
          Psi4: An Open-Source Ab Initio Electronic Structure Package
                              Psi4 (no tag) Driver

                          Git: Rev {detached?}  

    J. M. Turney, A. C. Simmonett, R. M. Parrish, E. G. Hohenstein,
    F. A. Evangelista, J. T. Fermann, B. J. Mintz, L. A. Burns, J. J. Wilke,
    M. L. Abrams, N. J. Russ, M. L. Leininger, C. L. Janssen, E. T. Seidl,
    W. D. Allen, H. F. Schaefer, R. A. King, E. F. Valeev, C. D. Sherrill,
    and T. D. Crawford, WIREs Comput. Mol. Sci. 2, 556-565 (2012)
    (doi: 10.1002/wcms.93)

                         Additional Contributions by
    A. E. DePrince, M. Saitow, U. Bozkaya, A. Yu. Sokolov
    -----------------------------------------------------------------------


    Psi4 started on: Tue Jul  5 17:08:18 2016

    Process ID:  16947
    PSI4DATADIR: /export131/home/mjharvey/miniconda3/share
    Memory level set to 256.000 MB

  ==> Input File <==

--------------------------------------------------------------------------
set {
	reference rhf
	basis 6-31G*
}


set_num_threads( 1 )
memory 2 gb

molecule MOL {
0 1

O	 0.295670	 0.678236	 -2.000304
C	 0.140502	 1.681556	 -1.381988
C	 0.136106	 1.793750	 0.123099
O	 -0.054281	 2.863688	 -1.952602
C	 1.292157	 1.054336	 0.789549
H	 0.151180	 2.851891	 0.369803
H	 -0.823050	 1.422362	 0.473590
C	 2.650480	 1.462571	 0.217125
H	 1.149252	 -0.015268	 0.671100
H	 1.270839	 1.244760	 1.858094
C	 2.900036	 0.886831	 -1.176162
H	 2.715987	 2.547951	 0.175485
H	 3.441289	 1.135323	 0.889138
H	 2.144613	 1.223799	 -1.880040
H	 3.869068	 1.191368	 -1.558930
H	 2.875714	 -0.198905	 -1.161170
C	 1.065166	 3.726192	 -2.042424
H	 1.444631	 3.960080	 -1.058153
H	 0.709774	 4.621320	 -2.528624
H	 1.850932	 3.269393	 -2.626729

	symmetry c1
}
set optking {
	frozen_dihedral = ("
		9 5 8 12,
		1 2 3 6,
		9 5 3 6
	")
}

ee = energy('scf')
oeprop('DIPOLE', 'QUADRUPOLE', 'MULLIKEN_CHARGES')
f=open( 'psi4out.xyz', 'w' )
f.write( "20  " )
f.write( str(ee) + "\n" )
f.write( MOL.save_string_xyz() )
f.close()
--------------------------------------------------------------------------

  Memory set to   2.000 GiB by Python script.

*** tstart() called on cx1-3-16-2.cx1.hpc.ic.ac.uk
*** at Tue Jul  5 17:08:18 2016


         ---------------------------------------------------------
                                   SCF
            by Justin Turney, Rob Parrish, and Andy Simmonett
                              RHF Reference
                        1 Threads,   2000 MiB Core
         ---------------------------------------------------------

  ==> Geometry <==

    Molecular point group: c1
    Full point group: C1

    Geometry (in Angstrom), charge = 0, multiplicity = 1:

       Center              X                  Y                   Z               Mass       
    ------------   -----------------  -----------------  -----------------  -----------------
           O         -0.764231782124    -1.107988844046    -1.041493164529    15.994914619560
           C         -0.919399782124    -0.104668844046    -0.423177164529    12.000000000000
           C         -0.923795782124     0.007525155954     1.081909835471    12.000000000000
           O         -1.114182782124     1.077463155954    -0.993791164529    15.994914619560
           C          0.232255217876    -0.731888844046     1.748359835471    12.000000000000
           H         -0.908721782124     1.065666155954     1.328613835471     1.007825032070
           H         -1.882951782124    -0.363862844046     1.432400835471     1.007825032070
           C          1.590578217876    -0.323653844046     1.175935835471    12.000000000000
           H          0.089350217876    -1.801492844046     1.629910835471     1.007825032070
           H          0.210937217876    -0.541464844046     2.816904835471     1.007825032070
           C          1.840134217876    -0.899393844046    -0.217351164529    12.000000000000
           H          1.656085217876     0.761726155954     1.134295835471     1.007825032070
           H          2.381387217876    -0.650901844046     1.847948835471     1.007825032070
           H          1.084711217876    -0.562425844046    -0.921229164529     1.007825032070
           H          2.809166217876    -0.594856844046    -0.600119164529     1.007825032070
           H          1.815812217876    -1.985129844046    -0.202359164529     1.007825032070
           C          0.005264217876     1.939967155954    -1.083613164529    12.000000000000
           H          0.384729217876     2.173855155954    -0.099342164529     1.007825032070
           H         -0.350127782124     2.835095155954    -1.569813164529     1.007825032070
           H          0.791030217876     1.483168155954    -1.667918164529     1.007825032070

  Running in c1 symmetry.

  Rotational constants: A =      0.08956  B =      0.05398  C =      0.05052 [cm^-1]
  Rotational constants: A =   2685.05609  B =   1618.31274  C =   1514.58962 [MHz]
  Nuclear repulsion =  415.670587239898225

  Charge       = 0
  Multiplicity = 1
  Electrons    = 64
  Nalpha       = 32
  Nbeta        = 32

  ==> Algorithm <==

  SCF Algorithm Type is DF.
  DIIS enabled.
  MOM disabled.
  Fractional occupation disabled.
  Guess Type is CORE.
  Energy threshold   = 1.00e-06
  Density threshold  = 1.00e-06
  Integral threshold = 0.00e+00

  ==> Primary Basis <==

  Basis Set: 6-31G*
    Number of shells: 72
    Number of basis function: 144
    Number of Cartesian functions: 144
    Spherical Harmonics?: false
    Max angular momentum: 2

  ==> Pre-Iterations <==

   -------------------------------------------------------
    Irrep   Nso     Nmo     Nalpha   Nbeta   Ndocc  Nsocc
   -------------------------------------------------------
     A        144     144       0       0       0       0
   -------------------------------------------------------
    Total     144     144      32      32      32       0
   -------------------------------------------------------

 OEINTS: Overlap, kinetic, potential, dipole, and quadrupole integrals
         stored in file 35.

  ==> Integral Setup <==

  ==> DFJK: Density-Fitted J/K Matrices <==

    J tasked:                  Yes
    K tasked:                  Yes
    wK tasked:                  No
    OpenMP threads:              1
    Integrals threads:           1
    Memory (MB):              1430
    Algorithm:                Core
    Integral Cache:           NONE
    Schwarz Cutoff:          1E-12
    Fitting Condition:       1E-12

   => Auxiliary Basis Set <=

  Basis Set: 
    Number of shells: 300
    Number of basis function: 948
    Number of Cartesian functions: 948
    Spherical Harmonics?: false
    Max angular momentum: 3

  Minimum eigenvalue in the overlap matrix is 2.9774854117E-03.
  Using Symmetric Orthogonalization.
  SCF Guess: Core (One-Electron) Hamiltonian.

  ==> Iterations <==

                           Total Energy        Delta E     RMS |[F,P]|

   @DF-RHF iter   1:  -266.25909816654331   -2.66259e+02   7.47169e-02 
   @DF-RHF iter   2:  -238.86996972335891    2.73891e+01   6.29008e-02 DIIS
   @DF-RHF iter   3:  -330.66773130077553   -9.17978e+01   4.29356e-02 DIIS
   @DF-RHF iter   4:  -340.28967722388319   -9.62195e+00   4.89461e-02 DIIS
   @DF-RHF iter   5:  -383.31895351635700   -4.30293e+01   7.65458e-03 DIIS
   @DF-RHF iter   6:  -383.75860273719894   -4.39649e-01   4.09812e-03 DIIS
   @DF-RHF iter   7:  -383.88504729960545   -1.26445e-01   6.52791e-04 DIIS
   @DF-RHF iter   8:  -383.89022190398128   -5.17460e-03   2.49175e-04 DIIS
   @DF-RHF iter   9:  -383.89105014095520   -8.28237e-04   9.25748e-05 DIIS
   @DF-RHF iter  10:  -383.89117340603792   -1.23265e-04   4.27680e-05 DIIS
   @DF-RHF iter  11:  -383.89119755810640   -2.41521e-05   2.11602e-05 DIIS
   @DF-RHF iter  12:  -383.89120480340915   -7.24530e-06   6.48295e-06 DIIS
   @DF-RHF iter  13:  -383.89120565770151   -8.54292e-07   1.87661e-06 DIIS
   @DF-RHF iter  14:  -383.89120574459224   -8.68907e-08   5.92346e-07 DIIS

  ==> Post-Iterations <==

    Orbital Energies (a.u.)
    -----------------------

    Doubly Occupied:                                                      

       1A    -20.590586     2A    -20.552595     3A    -11.376814  
       4A    -11.296774     5A    -11.237190     6A    -11.228083  
       7A    -11.222758     8A    -11.198146     9A     -1.468099  
      10A     -1.372193    11A     -1.094686    12A     -1.017001  
      13A     -0.975882    14A     -0.903633    15A     -0.812283  
      16A     -0.767301    17A     -0.700410    18A     -0.690510  
      19A     -0.679750    20A     -0.631371    21A     -0.625714  
      22A     -0.593998    23A     -0.584836    24A     -0.557451  
      25A     -0.549878    26A     -0.519062    27A     -0.510099  
      28A     -0.481870    29A     -0.474221    30A     -0.459669  
      31A     -0.440346    32A     -0.430135  

    Virtual:                                                              

      33A      0.163834    34A      0.219255    35A      0.252777  
      36A      0.262990    37A      0.275223    38A      0.291878  
      39A      0.301239    40A      0.310693    41A      0.329496  
      42A      0.333824    43A      0.343740    44A      0.355436  
      45A      0.370034    46A      0.395008    47A      0.410225  
      48A      0.424490    49A      0.462141    50A      0.469917  
      51A      0.552475    52A      0.598851    53A      0.668284  
      54A      0.720991    55A      0.735089    56A      0.744560  
      57A      0.770086    58A      0.782872    59A      0.803752  
      60A      0.839248    61A      0.866187    62A      0.891791  
      63A      0.916360    64A      0.929879    65A      0.963659  
      66A      0.969367    67A      0.992411    68A      0.994917  
      69A      1.062735    70A      1.092035    71A      1.118379  
      72A      1.127265    73A      1.139056    74A      1.151497  
      75A      1.166337    76A      1.172852    77A      1.191188  
      78A      1.208597    79A      1.224650    80A      1.235371  
      81A      1.239407    82A      1.251503    83A      1.266730  
      84A      1.303635    85A      1.332835    86A      1.353745  
      87A      1.395898    88A      1.423047    89A      1.468417  
      90A      1.501866    91A      1.524002    92A      1.644078  
      93A      1.670908    94A      1.694042    95A      1.724645  
      96A      1.771470    97A      1.803494    98A      1.864221  
      99A      1.898745   100A      1.966695   101A      2.011495  
     102A      2.048204   103A      2.105664   104A      2.124276  
     105A      2.141720   106A      2.154607   107A      2.204792  
     108A      2.232203   109A      2.236486   110A      2.276477  
     111A      2.314007   112A      2.350366   113A      2.398632  
     114A      2.414937   115A      2.436969   116A      2.445971  
     117A      2.488236   118A      2.580891   119A      2.598264  
     120A      2.621980   121A      2.669120   122A      2.677437  
     123A      2.691535   124A      2.736418   125A      2.790281  
     126A      2.816934   127A      2.837948   128A      2.901385  
     129A      2.979356   130A      3.008328   131A      3.081634  
     132A      3.188345   133A      3.254237   134A      3.294801  
     135A      3.397621   136A      3.500322   137A      4.431498  
     138A      4.555691   139A      4.631260   140A      4.664663  
     141A      4.779464   142A      4.813161   143A      4.949576  
     144A      5.029671  

    Final Occupation by Irrep:
              A 
    DOCC [    32 ]

  Energy converged.

  @DF-RHF Final Energy:  -383.89120574459224

   => Energetics <=

    Nuclear Repulsion Energy =            415.6705872398982251
    One-Electron Energy =               -1347.0368254913869350
    Two-Electron Energy =                 547.4750325068952179
    DFT Exchange-Correlation Energy =       0.0000000000000000
    Empirical Dispersion Energy =           0.0000000000000000
    PCM Polarization Energy =               0.0000000000000000
    EFP Energy =                            0.0000000000000000
    Total Energy =                       -383.8912057445935488

    Alert: EFP and PCM quantities not currently incorporated into SCF psivars.

Properties will be evaluated at   0.000000,   0.000000,   0.000000 Bohr
  ==> Properties <==


Properties computed using the SCF density matrix

  Nuclear Dipole Moment: (a.u.)
     X:     7.5670      Y:     1.7055      Z:     4.7988

  Electronic Dipole Moment: (a.u.)
     X:    -7.1228      Y:    -0.7064      Z:    -3.9681

  Dipole Moment: (a.u.)
     X:     0.4443      Y:     0.9991      Z:     0.8307     Total:     1.3732

  Dipole Moment: (Debye)
     X:     1.1293      Y:     2.5394      Z:     2.1115     Total:     3.4903


  Saving occupied orbitals to File 180.

*** tstop() called on cx1-3-16-2.cx1.hpc.ic.ac.uk at Tue Jul  5 17:08:35 2016
Module time:
	user time   =      16.33 seconds =       0.27 minutes
	system time =       0.19 seconds =       0.00 minutes
	total time  =         17 seconds =       0.28 minutes
Total time:
	user time   =      16.33 seconds =       0.27 minutes
	system time =       0.19 seconds =       0.00 minutes
	total time  =         17 seconds =       0.28 minutes


Properties will be evaluated at   0.000000,   0.000000,   0.000000 Bohr

Properties computed using the  density matrix

  Nuclear Dipole Moment: (a.u.)
     X:     7.5670      Y:     1.7055      Z:     4.7988

  Electronic Dipole Moment: (a.u.)
     X:    -7.1228      Y:    -0.7064      Z:    -3.9681

  Dipole Moment: (a.u.)
     X:     0.4443      Y:     0.9991      Z:     0.8307     Total:     1.3732

  Dipole Moment: (Debye)
     X:     1.1293      Y:     2.5394      Z:     2.1115     Total:     3.4903

  Quadrupole Moment: (Debye Ang)
    XX:   -51.4581     YY:   -49.2031     ZZ:   -51.5497
    XY:     0.5822     XZ:    -3.4720     YZ:    -4.0542

  Traceless Quadrupole Moment: (Debye Ang)
    XX:    -0.7212     YY:     1.5339     ZZ:    -0.8128
    XY:     0.5822     XZ:    -3.4720     YZ:    -4.0542

  Mulliken Charges: (a.u.)
   Center  Symbol    Alpha    Beta     Spin     Total
       1     O     4.25950  4.25950  0.00000 -0.51900
       2     C     2.61867  2.61867  0.00000  0.76266
       3     C     3.21316  3.21316  0.00000 -0.42631
       4     O     4.30847  4.30847  0.00000 -0.61694
       5     C     3.15468  3.15468  0.00000 -0.30937
       6     H     0.40714  0.40714  0.00000  0.18572
       7     H     0.39443  0.39443  0.00000  0.21114
       8     C     3.16659  3.16659  0.00000 -0.33318
       9     H     0.40779  0.40779  0.00000  0.18441
      10     H     0.41489  0.41489  0.00000  0.17023
      11     C     3.24611  3.24611  0.00000 -0.49222
      12     H     0.42756  0.42756  0.00000  0.14487
      13     H     0.41570  0.41570  0.00000  0.16861
      14     H     0.40322  0.40322  0.00000  0.19355
      15     H     0.42600  0.42600  0.00000  0.14799
      16     H     0.41492  0.41492  0.00000  0.17015
      17     C     3.09761  3.09761  0.00000 -0.19523
      18     H     0.41860  0.41860  0.00000  0.16280
      19     H     0.39904  0.39904  0.00000  0.20191
      20     H     0.40590  0.40590  0.00000  0.18820

   Total alpha = 32.00000, Total beta = 32.00000, Total charge =  0.00000


*** PSI4 exiting successfully. Buy a developer a beer!
