    -----------------------------------------------------------------------
          Psi4: An Open-Source Ab Initio Electronic Structure Package
                              Psi4 (no tag) Driver

                          Git: Rev {detached?}  

    J. M. Turney, A. C. Simmonett, R. M. Parrish, E. G. Hohenstein,
    F. A. Evangelista, J. T. Fermann, B. J. Mintz, L. A. Burns, J. J. Wilke,
    M. L. Abrams, N. J. Russ, M. L. Leininger, C. L. Janssen, E. T. Seidl,
    W. D. Allen, H. F. Schaefer, R. A. King, E. F. Valeev, C. D. Sherrill,
    and T. D. Crawford, WIREs Comput. Mol. Sci. 2, 556-565 (2012)
    (doi: 10.1002/wcms.93)

                         Additional Contributions by
    A. E. DePrince, M. Saitow, U. Bozkaya, A. Yu. Sokolov
    -----------------------------------------------------------------------


    Psi4 started on: Tue Jul  5 16:35:22 2016

    Process ID:  25011
    PSI4DATADIR: /export131/home/mjharvey/miniconda3/share
    Memory level set to 256.000 MB

  ==> Input File <==

--------------------------------------------------------------------------
set {
	reference rhf
	basis 6-31G*
}


set_num_threads( 1 )
memory 2 gb

molecule MOL {
0 1

H	 -1.748661	 -2.220942	 -0.005015
C	 -1.343207	 -1.225221	 -0.013879
N	 -0.055091	 -1.100174	 -0.261126
C	 -2.150779	 -0.125890	 0.222726
C	 0.449969	 0.122615	 -0.277109
H	 -3.200618	 -0.238980	 0.422496
N	 -1.660212	 1.097703	 0.209594
C	 -0.371804	 1.219904	 -0.038265
C	 1.928147	 0.267347	 -0.541394
H	 0.029131	 2.217482	 -0.051283
C	 2.731267	 0.506354	 0.741527
H	 2.278392	 -0.639647	 -1.022594
H	 2.093353	 1.083966	 -1.237106
H	 3.791211	 0.578437	 0.519441
H	 2.584604	 -0.309353	 1.439804
H	 2.426387	 1.427631	 1.227950

	symmetry c1
}
ee = energy('scf')
oeprop('DIPOLE', 'QUADRUPOLE', 'MULLIKEN_CHARGES')
f=open( 'psi4out.xyz', 'w' )
f.write( "16  " )
f.write( str(ee) + "\n" )
f.write( MOL.save_string_xyz() )
f.close()
--------------------------------------------------------------------------

  Memory set to   2.000 GiB by Python script.

*** tstart() called on cx1-3-6-2.cx1.hpc.ic.ac.uk
*** at Tue Jul  5 16:35:22 2016


         ---------------------------------------------------------
                                   SCF
            by Justin Turney, Rob Parrish, and Andy Simmonett
                              RHF Reference
                        1 Threads,   2000 MiB Core
         ---------------------------------------------------------

  ==> Geometry <==

    Molecular point group: c1
    Full point group: C1

    Geometry (in Angstrom), charge = 0, multiplicity = 1:

       Center              X                  Y                   Z               Mass       
    ------------   -----------------  -----------------  -----------------  -----------------
           H         -1.741461753037    -2.323285713058    -0.020796452149     1.007825032070
           C         -1.336007753037    -1.327564713058    -0.029660452149    12.000000000000
           N         -0.047891753037    -1.202517713058    -0.276907452149    14.003074004780
           C         -2.143579753037    -0.228233713058     0.206944547851    12.000000000000
           C          0.457168246963     0.020271286942    -0.292890452149    12.000000000000
           H         -3.193418753037    -0.341323713058     0.406714547851     1.007825032070
           N         -1.653012753037     0.995359286942     0.193812547851    14.003074004780
           C         -0.364604753037     1.117560286942    -0.054046452149    12.000000000000
           C          1.935346246963     0.165003286942    -0.557175452149    12.000000000000
           H          0.036330246963     2.115138286942    -0.067064452149     1.007825032070
           C          2.738466246963     0.404010286942     0.725745547851    12.000000000000
           H          2.285591246963    -0.741990713058    -1.038375452149     1.007825032070
           H          2.100552246963     0.981622286942    -1.252887452149     1.007825032070
           H          3.798410246963     0.476093286942     0.503659547851     1.007825032070
           H          2.591803246963    -0.411696713058     1.424022547851     1.007825032070
           H          2.433586246963     1.325287286942     1.212168547851     1.007825032070

  Running in c1 symmetry.

  Rotational constants: A =      0.16293  B =      0.05170  C =      0.04295 [cm^-1]
  Rotational constants: A =   4884.47350  B =   1549.82950  C =   1287.69219 [MHz]
  Nuclear repulsion =  349.763623599174196

  Charge       = 0
  Multiplicity = 1
  Electrons    = 58
  Nalpha       = 29
  Nbeta        = 29

  ==> Algorithm <==

  SCF Algorithm Type is DF.
  DIIS enabled.
  MOM disabled.
  Fractional occupation disabled.
  Guess Type is CORE.
  Energy threshold   = 1.00e-06
  Density threshold  = 1.00e-06
  Integral threshold = 0.00e+00

  ==> Primary Basis <==

  Basis Set: 6-31G*
    Number of shells: 64
    Number of basis function: 136
    Number of Cartesian functions: 136
    Spherical Harmonics?: false
    Max angular momentum: 2

  ==> Pre-Iterations <==

   -------------------------------------------------------
    Irrep   Nso     Nmo     Nalpha   Nbeta   Ndocc  Nsocc
   -------------------------------------------------------
     A        136     136       0       0       0       0
   -------------------------------------------------------
    Total     136     136      29      29      29       0
   -------------------------------------------------------

 OEINTS: Overlap, kinetic, potential, dipole, and quadrupole integrals
         stored in file 35.

  ==> Integral Setup <==

  ==> DFJK: Density-Fitted J/K Matrices <==

    J tasked:                  Yes
    K tasked:                  Yes
    wK tasked:                  No
    OpenMP threads:              1
    Integrals threads:           1
    Memory (MB):              1430
    Algorithm:                Core
    Integral Cache:           NONE
    Schwarz Cutoff:          1E-12
    Fitting Condition:       1E-12

   => Auxiliary Basis Set <=

  Basis Set: 
    Number of shells: 264
    Number of basis function: 848
    Number of Cartesian functions: 848
    Spherical Harmonics?: false
    Max angular momentum: 3

  Minimum eigenvalue in the overlap matrix is 1.1687778370E-03.
  Using Symmetric Orthogonalization.
  SCF Guess: Core (One-Electron) Hamiltonian.

  ==> Iterations <==

                           Total Energy        Delta E     RMS |[F,P]|

   @DF-RHF iter   1:  -252.44246034917688   -2.52442e+02   6.96658e-02 
   @DF-RHF iter   2:  -126.44762792525501    1.25995e+02   8.17342e-02 DIIS
   @DF-RHF iter   3:  -233.01577766269617   -1.06568e+02   6.12122e-02 DIIS
   @DF-RHF iter   4:  -269.99512777380886   -3.69794e+01   6.88972e-02 DIIS
   @DF-RHF iter   5:  -336.32307141572636   -6.63279e+01   1.48815e-02 DIIS
   @DF-RHF iter   6:  -339.51457878317166   -3.19151e+00   1.17095e-02 DIIS
   @DF-RHF iter   7:  -340.61237750400056   -1.09780e+00   3.53406e-03 DIIS
   @DF-RHF iter   8:  -340.73303513435945   -1.20658e-01   1.49508e-03 DIIS
   @DF-RHF iter   9:  -340.75584795018159   -2.28128e-02   3.39362e-04 DIIS
   @DF-RHF iter  10:  -340.75745087427714   -1.60292e-03   1.18607e-04 DIIS
   @DF-RHF iter  11:  -340.75767812837540   -2.27254e-04   4.07177e-05 DIIS
   @DF-RHF iter  12:  -340.75770944261654   -3.13142e-05   1.60550e-05 DIIS
   @DF-RHF iter  13:  -340.75771555917669   -6.11656e-06   6.13429e-06 DIIS
   @DF-RHF iter  14:  -340.75771668465978   -1.12548e-06   2.36081e-06 DIIS
   @DF-RHF iter  15:  -340.75771690517064   -2.20511e-07   1.09551e-06 DIIS
   @DF-RHF iter  16:  -340.75771696711178   -6.19411e-08   4.29892e-07 DIIS

  ==> Post-Iterations <==

    Orbital Energies (a.u.)
    -----------------------

    Doubly Occupied:                                                      

       1A    -15.586982     2A    -15.582142     3A    -11.281041  
       4A    -11.275585     5A    -11.272564     6A    -11.271880  
       7A    -11.232136     8A    -11.221361     9A     -1.313317  
      10A     -1.221819    11A     -1.085531    12A     -1.014545  
      13A     -0.903118    14A     -0.895314    15A     -0.829381  
      16A     -0.714969    17A     -0.710892    18A     -0.658487  
      19A     -0.610968    20A     -0.605895    21A     -0.582655  
      22A     -0.562422    23A     -0.521830    24A     -0.508855  
      25A     -0.502439    26A     -0.482758    27A     -0.429457  
      28A     -0.395241    29A     -0.344803  

    Virtual:                                                              

      30A      0.105951    31A      0.132100    32A      0.240333  
      33A      0.272347    34A      0.286318    35A      0.297517  
      36A      0.314638    37A      0.316628    38A      0.327124  
      39A      0.329331    40A      0.345547    41A      0.386259  
      42A      0.411903    43A      0.437266    44A      0.496897  
      45A      0.512569    46A      0.558579    47A      0.623811  
      48A      0.667955    49A      0.712747    50A      0.727943  
      51A      0.736434    52A      0.743880    53A      0.757395  
      54A      0.770929    55A      0.805941    56A      0.828896  
      57A      0.847340    58A      0.874876    59A      0.888271  
      60A      0.916237    61A      0.948499    62A      0.964834  
      63A      1.007871    64A      1.042638    65A      1.057556  
      66A      1.078652    67A      1.082911    68A      1.096479  
      69A      1.108230    70A      1.121673    71A      1.144607  
      72A      1.151943    73A      1.172272    74A      1.182625  
      75A      1.213290    76A      1.230973    77A      1.247581  
      78A      1.249468    79A      1.263075    80A      1.308075  
      81A      1.346667    82A      1.407902    83A      1.502512  
      84A      1.506781    85A      1.586390    86A      1.602348  
      87A      1.641546    88A      1.709706    89A      1.772168  
      90A      1.777262    91A      1.782175    92A      1.796164  
      93A      1.831822    94A      1.964352    95A      1.990811  
      96A      2.012324    97A      2.079707    98A      2.141338  
      99A      2.152493   100A      2.185968   101A      2.238466  
     102A      2.280189   103A      2.317173   104A      2.338503  
     105A      2.407820   106A      2.482199   107A      2.504901  
     108A      2.546028   109A      2.571563   110A      2.580621  
     111A      2.611605   112A      2.655682   113A      2.670031  
     114A      2.693154   115A      2.715593   116A      2.757255  
     117A      2.813637   118A      2.869381   119A      2.924299  
     120A      2.950563   121A      3.048072   122A      3.106217  
     123A      3.135596   124A      3.168533   125A      3.220034  
     126A      3.261400   127A      3.495858   128A      3.842488  
     129A      4.372829   130A      4.506989   131A      4.558293  
     132A      4.630116   133A      4.706682   134A      4.787357  
     135A      4.892596   136A      4.990738  

    Final Occupation by Irrep:
              A 
    DOCC [    29 ]

  Energy converged.

  @DF-RHF Final Energy:  -340.75771696711178

   => Energetics <=

    Nuclear Repulsion Energy =            349.7636235991741955
    One-Electron Energy =               -1153.8059152935109068
    Two-Electron Energy =                 463.2845747272253902
    DFT Exchange-Correlation Energy =       0.0000000000000000
    Empirical Dispersion Energy =           0.0000000000000000
    PCM Polarization Energy =               0.0000000000000000
    EFP Energy =                            0.0000000000000000
    Total Energy =                       -340.7577169671112642

    Alert: EFP and PCM quantities not currently incorporated into SCF psivars.

Properties will be evaluated at   0.000000,   0.000000,   0.000000 Bohr
  ==> Properties <==


Properties computed using the SCF density matrix

  Nuclear Dipole Moment: (a.u.)
     X:     7.7966      Y:     1.0129      Z:     1.0947

  Electronic Dipole Moment: (a.u.)
     X:    -7.5787      Y:    -1.0504      Z:    -1.1105

  Dipole Moment: (a.u.)
     X:     0.2179      Y:    -0.0375      Z:    -0.0158     Total:     0.2217

  Dipole Moment: (Debye)
     X:     0.5539      Y:    -0.0952      Z:    -0.0403     Total:     0.5635


  Saving occupied orbitals to File 180.

*** tstop() called on cx1-3-6-2.cx1.hpc.ic.ac.uk at Tue Jul  5 16:35:36 2016
Module time:
	user time   =      13.76 seconds =       0.23 minutes
	system time =       0.09 seconds =       0.00 minutes
	total time  =         14 seconds =       0.23 minutes
Total time:
	user time   =      13.76 seconds =       0.23 minutes
	system time =       0.09 seconds =       0.00 minutes
	total time  =         14 seconds =       0.23 minutes


Properties will be evaluated at   0.000000,   0.000000,   0.000000 Bohr

Properties computed using the  density matrix

  Nuclear Dipole Moment: (a.u.)
     X:     7.7966      Y:     1.0129      Z:     1.0947

  Electronic Dipole Moment: (a.u.)
     X:    -7.5787      Y:    -1.0504      Z:    -1.1105

  Dipole Moment: (a.u.)
     X:     0.2179      Y:    -0.0375      Z:    -0.0158     Total:     0.2217

  Dipole Moment: (Debye)
     X:     0.5539      Y:    -0.0952      Z:    -0.0403     Total:     0.5635

  Quadrupole Moment: (Debye Ang)
    XX:   -44.4751     YY:   -49.0676     ZZ:   -49.1382
    XY:     6.5786     XZ:    -0.5165     YZ:    -1.4195

  Traceless Quadrupole Moment: (Debye Ang)
    XX:     3.0852     YY:    -1.5073     ZZ:    -1.5779
    XY:     6.5786     XZ:    -0.5165     YZ:    -1.4195

  Mulliken Charges: (a.u.)
   Center  Symbol    Alpha    Beta     Spin     Total
       1     H     0.39389  0.39389  0.00000  0.21222
       2     C     2.99071  2.99071  0.00000  0.01858
       3     N     3.75383  3.75383  0.00000 -0.50765
       4     C     2.99778  2.99778  0.00000  0.00445
       5     C     2.87636  2.87636  0.00000  0.24728
       6     H     0.39432  0.39432  0.00000  0.21136
       7     N     3.72973  3.72973  0.00000 -0.45945
       8     C     2.99427  2.99427  0.00000  0.01146
       9     C     3.17354  3.17354  0.00000 -0.34708
      10     H     0.39515  0.39515  0.00000  0.20969
      11     C     3.24222  3.24222  0.00000 -0.48444
      12     H     0.39967  0.39967  0.00000  0.20067
      13     H     0.41306  0.41306  0.00000  0.17389
      14     H     0.41545  0.41545  0.00000  0.16910
      15     H     0.41111  0.41111  0.00000  0.17778
      16     H     0.41893  0.41893  0.00000  0.16215

   Total alpha = 29.00000, Total beta = 29.00000, Total charge =  0.00000


*** PSI4 exiting successfully. Buy a developer a beer!
