    -----------------------------------------------------------------------
          Psi4: An Open-Source Ab Initio Electronic Structure Package
                              Psi4 (no tag) Driver

                          Git: Rev {detached?}  

    J. M. Turney, A. C. Simmonett, R. M. Parrish, E. G. Hohenstein,
    F. A. Evangelista, J. T. Fermann, B. J. Mintz, L. A. Burns, J. J. Wilke,
    M. L. Abrams, N. J. Russ, M. L. Leininger, C. L. Janssen, E. T. Seidl,
    W. D. Allen, H. F. Schaefer, R. A. King, E. F. Valeev, C. D. Sherrill,
    and T. D. Crawford, WIREs Comput. Mol. Sci. 2, 556-565 (2012)
    (doi: 10.1002/wcms.93)

                         Additional Contributions by
    A. E. DePrince, M. Saitow, U. Bozkaya, A. Yu. Sokolov
    -----------------------------------------------------------------------


    Psi4 started on: Tue Jul  5 16:39:23 2016

    Process ID:  20617
    PSI4DATADIR: /export131/home/mjharvey/miniconda3/share
    Memory level set to 256.000 MB

  ==> Input File <==

--------------------------------------------------------------------------
set {
	reference rhf
	basis 6-31G*
}


set_num_threads( 1 )
memory 2 gb

molecule MOL {
0 1

O	 -0.806752	 -1.114546	 1.082146
C	 -0.561929	 -0.074560	 0.531515
C	 -1.597472	 1.034011	 0.503089
N	 0.623947	 0.147590	 -0.102813
H	 -1.868528	 1.298769	 -0.513038
H	 -2.472791	 0.671041	 1.019920
H	 -1.237628	 1.928840	 0.999450
C	 1.768500	 -0.665072	 0.259756
C	 0.927992	 1.344595	 -0.855795
H	 2.573271	 -0.490790	 -0.445926
H	 1.491816	 -1.704707	 0.236411
H	 2.127785	 -0.419103	 1.256669
H	 1.608400	 1.093513	 -1.660805
H	 0.041953	 1.770792	 -1.298768
H	 1.405017	 2.103134	 -0.237831

	symmetry c1
}
set optking {
	frozen_dihedral = ("
		2 4 8 10
	")
}

ee = energy('scf')
oeprop('DIPOLE', 'QUADRUPOLE', 'MULLIKEN_CHARGES')
f=open( 'psi4out.xyz', 'w' )
f.write( "15  " )
f.write( str(ee) + "\n" )
f.write( MOL.save_string_xyz() )
f.close()
--------------------------------------------------------------------------

  Memory set to   2.000 GiB by Python script.

*** tstart() called on cx1-3-2-1.cx1.hpc.ic.ac.uk
*** at Tue Jul  5 16:39:23 2016


         ---------------------------------------------------------
                                   SCF
            by Justin Turney, Rob Parrish, and Andy Simmonett
                              RHF Reference
                        1 Threads,   2000 MiB Core
         ---------------------------------------------------------

  ==> Geometry <==

    Molecular point group: c1
    Full point group: C1

    Geometry (in Angstrom), charge = 0, multiplicity = 1:

       Center              X                  Y                   Z               Mass       
    ------------   -----------------  -----------------  -----------------  -----------------
           O         -0.875391656327    -1.231784160499     0.846894693255    15.994914619560
           C         -0.630568656327    -0.191798160499     0.296263693255    12.000000000000
           C         -1.666111656327     0.916772839501     0.267837693255    12.000000000000
           N          0.555307343673     0.030351839501    -0.338064306745    14.003074004780
           H         -1.937167656327     1.181530839501    -0.748289306745     1.007825032070
           H         -2.541430656327     0.553802839501     0.784668693255     1.007825032070
           H         -1.306267656327     1.811601839501     0.764198693255     1.007825032070
           C          1.699860343673    -0.782310160499     0.024504693255    12.000000000000
           C          0.859352343673     1.227356839501    -1.091046306745    12.000000000000
           H          2.504631343673    -0.608028160499    -0.681177306745     1.007825032070
           H          1.423176343673    -1.821945160499     0.001159693255     1.007825032070
           H          2.059145343673    -0.536341160499     1.021417693255     1.007825032070
           H          1.539760343673     0.976274839501    -1.896056306745     1.007825032070
           H         -0.026686656327     1.653553839501    -1.534019306745     1.007825032070
           H          1.336377343673     1.985895839501    -0.473082306745     1.007825032070

  Running in c1 symmetry.

  Rotational constants: A =      0.16563  B =      0.11467  C =      0.07120 [cm^-1]
  Rotational constants: A =   4965.35679  B =   3437.77755  C =   2134.54410 [MHz]
  Nuclear repulsion =  252.289120800754830

  Charge       = 0
  Multiplicity = 1
  Electrons    = 48
  Nalpha       = 24
  Nbeta        = 24

  ==> Algorithm <==

  SCF Algorithm Type is DF.
  DIIS enabled.
  MOM disabled.
  Fractional occupation disabled.
  Guess Type is CORE.
  Energy threshold   = 1.00e-06
  Density threshold  = 1.00e-06
  Integral threshold = 0.00e+00

  ==> Primary Basis <==

  Basis Set: 6-31G*
    Number of shells: 54
    Number of basis function: 108
    Number of Cartesian functions: 108
    Spherical Harmonics?: false
    Max angular momentum: 2

  ==> Pre-Iterations <==

   -------------------------------------------------------
    Irrep   Nso     Nmo     Nalpha   Nbeta   Ndocc  Nsocc
   -------------------------------------------------------
     A        108     108       0       0       0       0
   -------------------------------------------------------
    Total     108     108      24      24      24       0
   -------------------------------------------------------

 OEINTS: Overlap, kinetic, potential, dipole, and quadrupole integrals
         stored in file 35.

  ==> Integral Setup <==

  ==> DFJK: Density-Fitted J/K Matrices <==

    J tasked:                  Yes
    K tasked:                  Yes
    wK tasked:                  No
    OpenMP threads:              1
    Integrals threads:           1
    Memory (MB):              1430
    Algorithm:                Core
    Integral Cache:           NONE
    Schwarz Cutoff:          1E-12
    Fitting Condition:       1E-12

   => Auxiliary Basis Set <=

  Basis Set: 
    Number of shells: 225
    Number of basis function: 711
    Number of Cartesian functions: 711
    Spherical Harmonics?: false
    Max angular momentum: 3

  Minimum eigenvalue in the overlap matrix is 3.6068041621E-03.
  Using Symmetric Orthogonalization.
  SCF Guess: Core (One-Electron) Hamiltonian.

  ==> Iterations <==

                           Total Energy        Delta E     RMS |[F,P]|

   @DF-RHF iter   1:  -204.43950833220217   -2.04440e+02   8.85062e-02 
   @DF-RHF iter   2:  -226.82687080737767   -2.23874e+01   4.80097e-02 DIIS
   @DF-RHF iter   3:  -231.07421861895730   -4.24735e+00   7.21304e-02 DIIS
   @DF-RHF iter   4:  -270.15518980719969   -3.90810e+01   4.63260e-02 DIIS
   @DF-RHF iter   5:  -278.91435072607703   -8.75916e+00   3.39748e-02 DIIS
   @DF-RHF iter   6:  -281.38223915443973   -2.46789e+00   2.52754e-02 DIIS
   @DF-RHF iter   7:  -285.00921931477671   -3.62698e+00   1.22672e-02 DIIS
   @DF-RHF iter   8:  -285.88810976347224   -8.78890e-01   4.16465e-03 DIIS
   @DF-RHF iter   9:  -286.00929238776894   -1.21183e-01   1.48955e-03 DIIS
   @DF-RHF iter  10:  -286.02440336451423   -1.51110e-02   3.25229e-04 DIIS
   @DF-RHF iter  11:  -286.02594486133978   -1.54150e-03   1.17447e-04 DIIS
   @DF-RHF iter  12:  -286.02616611182214   -2.21250e-04   4.78285e-05 DIIS
   @DF-RHF iter  13:  -286.02621148665060   -4.53748e-05   3.11904e-05 DIIS
   @DF-RHF iter  14:  -286.02622126232870   -9.77568e-06   6.86464e-06 DIIS
   @DF-RHF iter  15:  -286.02622210305992   -8.40731e-07   2.19425e-06 DIIS
   @DF-RHF iter  16:  -286.02622216434690   -6.12870e-08   4.46114e-07 DIIS

  ==> Post-Iterations <==

    Orbital Energies (a.u.)
    -----------------------

    Doubly Occupied:                                                      

       1A    -20.515159     2A    -15.581964     3A    -11.341047  
       4A    -11.266099     5A    -11.250852     6A    -11.227798  
       7A     -1.383519     8A     -1.243813     9A     -1.013599  
      10A     -0.972865    11A     -0.920417    12A     -0.738110  
      13A     -0.679452    14A     -0.658819    15A     -0.650626  
      16A     -0.588111    17A     -0.574324    18A     -0.572737  
      19A     -0.565303    20A     -0.549379    21A     -0.529552  
      22A     -0.499986    23A     -0.410167    24A     -0.364574  

    Virtual:                                                              

      25A      0.202730    26A      0.221581    27A      0.256737  
      28A      0.286341    29A      0.293304    30A      0.301606  
      31A      0.309617    32A      0.329730    33A      0.349510  
      34A      0.357442    35A      0.390913    36A      0.394702  
      37A      0.446352    38A      0.505668    39A      0.592782  
      40A      0.694975    41A      0.698932    42A      0.743706  
      43A      0.770139    44A      0.774032    45A      0.784493  
      46A      0.861891    47A      0.882068    48A      0.920692  
      49A      0.957883    50A      0.988727    51A      1.007601  
      52A      1.065314    53A      1.097442    54A      1.117467  
      55A      1.126767    56A      1.137836    57A      1.160710  
      58A      1.169833    59A      1.181114    60A      1.214124  
      61A      1.221664    62A      1.228874    63A      1.258826  
      64A      1.285720    65A      1.293715    66A      1.362879  
      67A      1.402300    68A      1.543386    69A      1.575963  
      70A      1.616084    71A      1.667219    72A      1.733624  
      73A      1.742661    74A      1.825464    75A      1.935423  
      76A      2.035589    77A      2.097779    78A      2.111323  
      79A      2.172996    80A      2.205035    81A      2.238429  
      82A      2.293708    83A      2.318618    84A      2.340192  
      85A      2.381045    86A      2.404826    87A      2.439608  
      88A      2.498635    89A      2.590262    90A      2.597791  
      91A      2.614981    92A      2.660399    93A      2.683810  
      94A      2.762732    95A      2.877147    96A      2.879901  
      97A      2.972699    98A      3.032660    99A      3.077831  
     100A      3.323604   101A      3.395482   102A      3.583567  
     103A      4.431247   104A      4.450813   105A      4.607653  
     106A      4.710426   107A      4.763796   108A      4.938056  

    Final Occupation by Irrep:
              A 
    DOCC [    24 ]

  Energy converged.

  @DF-RHF Final Energy:  -286.02622216434690

   => Energetics <=

    Nuclear Repulsion Energy =            252.2891208007548300
    One-Electron Energy =                -888.4339782207600820
    Two-Electron Energy =                 350.1186352556578640
    DFT Exchange-Correlation Energy =       0.0000000000000000
    Empirical Dispersion Energy =           0.0000000000000000
    PCM Polarization Energy =               0.0000000000000000
    EFP Energy =                            0.0000000000000000
    Total Energy =                       -286.0262221643473595

    Alert: EFP and PCM quantities not currently incorporated into SCF psivars.

Properties will be evaluated at   0.000000,   0.000000,   0.000000 Bohr
  ==> Properties <==


Properties computed using the SCF density matrix

  Nuclear Dipole Moment: (a.u.)
     X:     2.8549      Y:     4.8654      Z:    -2.5835

  Electronic Dipole Moment: (a.u.)
     X:    -2.2243      Y:    -3.5980      Z:     1.8778

  Dipole Moment: (a.u.)
     X:     0.6306      Y:     1.2674      Z:    -0.7056     Total:     1.5817

  Dipole Moment: (Debye)
     X:     1.6029      Y:     3.2214      Z:    -1.7935     Total:     4.0204


  Saving occupied orbitals to File 180.

*** tstop() called on cx1-3-2-1.cx1.hpc.ic.ac.uk at Tue Jul  5 16:39:30 2016
Module time:
	user time   =       6.46 seconds =       0.11 minutes
	system time =       0.05 seconds =       0.00 minutes
	total time  =          7 seconds =       0.12 minutes
Total time:
	user time   =       6.46 seconds =       0.11 minutes
	system time =       0.05 seconds =       0.00 minutes
	total time  =          7 seconds =       0.12 minutes


Properties will be evaluated at   0.000000,   0.000000,   0.000000 Bohr

Properties computed using the  density matrix

  Nuclear Dipole Moment: (a.u.)
     X:     2.8549      Y:     4.8654      Z:    -2.5835

  Electronic Dipole Moment: (a.u.)
     X:    -2.2243      Y:    -3.5980      Z:     1.8778

  Dipole Moment: (a.u.)
     X:     0.6306      Y:     1.2674      Z:    -0.7056     Total:     1.5817

  Dipole Moment: (Debye)
     X:     1.6029      Y:     3.2214      Z:    -1.7935     Total:     4.0204

  Quadrupole Moment: (Debye Ang)
    XX:   -35.1366     YY:   -39.7132     ZZ:   -38.1997
    XY:    -3.5571     XZ:     0.8934     YZ:     1.7585

  Traceless Quadrupole Moment: (Debye Ang)
    XX:     2.5466     YY:    -2.0301     ZZ:    -0.5165
    XY:    -3.5571     XZ:     0.8934     YZ:     1.7585

  Mulliken Charges: (a.u.)
   Center  Symbol    Alpha    Beta     Spin     Total
       1     O     4.30169  4.30169  0.00000 -0.60338
       2     C     2.62528  2.62528  0.00000  0.74943
       3     C     3.29748  3.29748  0.00000 -0.59497
       4     N     3.82353  3.82353  0.00000 -0.64707
       5     H     0.40786  0.40786  0.00000  0.18427
       6     H     0.39101  0.39101  0.00000  0.21797
       7     H     0.40732  0.40732  0.00000  0.18536
       8     C     3.14055  3.14055  0.00000 -0.28111
       9     C     3.14042  3.14042  0.00000 -0.28083
      10     H     0.41822  0.41822  0.00000  0.16355
      11     H     0.39362  0.39362  0.00000  0.21277
      12     H     0.41601  0.41601  0.00000  0.16798
      13     H     0.40913  0.40913  0.00000  0.18173
      14     H     0.40937  0.40937  0.00000  0.18126
      15     H     0.41849  0.41849  0.00000  0.16303

   Total alpha = 24.00000, Total beta = 24.00000, Total charge =  0.00000


*** PSI4 exiting successfully. Buy a developer a beer!
