    -----------------------------------------------------------------------
          Psi4: An Open-Source Ab Initio Electronic Structure Package
                              Psi4 (no tag) Driver

                          Git: Rev {detached?}  

    J. M. Turney, A. C. Simmonett, R. M. Parrish, E. G. Hohenstein,
    F. A. Evangelista, J. T. Fermann, B. J. Mintz, L. A. Burns, J. J. Wilke,
    M. L. Abrams, N. J. Russ, M. L. Leininger, C. L. Janssen, E. T. Seidl,
    W. D. Allen, H. F. Schaefer, R. A. King, E. F. Valeev, C. D. Sherrill,
    and T. D. Crawford, WIREs Comput. Mol. Sci. 2, 556-565 (2012)
    (doi: 10.1002/wcms.93)

                         Additional Contributions by
    A. E. DePrince, M. Saitow, U. Bozkaya, A. Yu. Sokolov
    -----------------------------------------------------------------------


    Psi4 started on: Tue Jul  5 17:50:56 2016

    Process ID:  28442
    PSI4DATADIR: /export131/home/mjharvey/miniconda3/share
    Memory level set to 256.000 MB

  ==> Input File <==

--------------------------------------------------------------------------
set {
	reference rhf
	basis 6-31G*
}


set_num_threads( 1 )
memory 2 gb

molecule MOL {
0 1

H	 6.024589	 -0.641145	 2.061959
C	 5.901990	 -1.713047	 2.182451
C	 6.984276	 -2.481377	 1.425152
H	 5.939938	 -1.932881	 3.245266
H	 4.909719	 -1.974804	 1.825127
C	 6.836587	 -3.997771	 1.568503
H	 7.960479	 -2.177038	 1.788479
H	 6.943500	 -2.214129	 0.370350
C	 5.414412	 -4.503471	 1.325703
H	 7.509849	 -4.495501	 0.879570
H	 7.136774	 -4.290650	 2.572072
C	 4.964761	 -4.436609	 -0.126394
H	 5.339545	 -5.547646	 1.625478
H	 4.700032	 -3.967576	 1.946712
C	 3.475324	 -4.538016	 -0.405696
O	 5.749531	 -4.327101	 -1.020010
C	 3.142513	 -5.197708	 -1.752249
H	 3.077758	 -3.530724	 -0.373804
H	 3.010537	 -5.105855	 0.398180
C	 3.906992	 -6.506058	 -1.962969
H	 2.073565	 -5.394231	 -1.800676
H	 3.371148	 -4.517137	 -2.568350
C	 3.584233	 -7.172245	 -3.299729
H	 3.675183	 -7.191428	 -1.151430
H	 4.975620	 -6.311267	 -1.903941
H	 2.526789	 -7.408725	 -3.374670
H	 3.837980	 -6.523738	 -4.133494
H	 4.139105	 -8.097216	 -3.419829

	symmetry c1
}
set optking {
	frozen_dihedral = ("
		10 6 3 2,
		12 15 17 21
	")
}

ee = energy('scf')
oeprop('DIPOLE', 'QUADRUPOLE', 'MULLIKEN_CHARGES')
f=open( 'psi4out.xyz', 'w' )
f.write( "28  " )
f.write( str(ee) + "\n" )
f.write( MOL.save_string_xyz() )
f.close()
--------------------------------------------------------------------------

  Memory set to   2.000 GiB by Python script.

*** tstart() called on cx1-3-4-4.cx1.hpc.ic.ac.uk
*** at Tue Jul  5 17:50:56 2016


         ---------------------------------------------------------
                                   SCF
            by Justin Turney, Rob Parrish, and Andy Simmonett
                              RHF Reference
                        1 Threads,   2000 MiB Core
         ---------------------------------------------------------

  ==> Geometry <==

    Molecular point group: c1
    Full point group: C1

    Geometry (in Angstrom), charge = 0, multiplicity = 1:

       Center              X                  Y                   Z               Mass       
    ------------   -----------------  -----------------  -----------------  -----------------
           H          1.027040420164     3.845588300392     2.279261531954     1.007825032070
           C          0.904441420164     2.773686300392     2.399753531954    12.000000000000
           C          1.986727420164     2.005356300392     1.642454531954    12.000000000000
           H          0.942389420164     2.553852300392     3.462568531954     1.007825032070
           H         -0.087829579836     2.511929300392     2.042429531954     1.007825032070
           C          1.839038420164     0.488962300392     1.785805531954    12.000000000000
           H          2.962930420164     2.309695300392     2.005781531954     1.007825032070
           H          1.945951420164     2.272604300392     0.587652531954     1.007825032070
           C          0.416863420164    -0.016737699608     1.543005531954    12.000000000000
           H          2.512300420164    -0.008767699608     1.096872531954     1.007825032070
           H          2.139225420164     0.196083300392     2.789374531954     1.007825032070
           C         -0.032787579836     0.050124300392     0.090908531954    12.000000000000
           H          0.341996420164    -1.060912699608     1.842780531954     1.007825032070
           H         -0.297516579836     0.519157300392     2.164014531954     1.007825032070
           C         -1.522224579836    -0.051282699608    -0.188393468046    12.000000000000
           O          0.751982420164     0.159632300392    -0.802707468046    15.994914619560
           C         -1.855035579836    -0.710974699608    -1.534946468046    12.000000000000
           H         -1.919790579836     0.956009300392    -0.156501468046     1.007825032070
           H         -1.987011579836    -0.619121699608     0.615482531954     1.007825032070
           C         -1.090556579836    -2.019324699608    -1.745666468046    12.000000000000
           H         -2.923983579836    -0.907497699608    -1.583373468046     1.007825032070
           H         -1.626400579836    -0.030403699608    -2.351047468046     1.007825032070
           C         -1.413315579836    -2.685511699608    -3.082426468046    12.000000000000
           H         -1.322365579836    -2.704694699608    -0.934127468046     1.007825032070
           H         -0.021928579836    -1.824533699608    -1.686638468046     1.007825032070
           H         -2.470759579836    -2.921991699608    -3.157367468046     1.007825032070
           H         -1.159568579836    -2.037004699608    -3.916191468046     1.007825032070
           H         -0.858443579836    -3.610482699608    -3.202526468046     1.007825032070

  Running in c1 symmetry.

  Rotational constants: A =      0.10882  B =      0.01713  C =      0.01637 [cm^-1]
  Rotational constants: A =   3262.19931  B =    513.44189  C =    490.87570 [MHz]
  Nuclear repulsion =  551.192972684607298

  Charge       = 0
  Multiplicity = 1
  Electrons    = 80
  Nalpha       = 40
  Nbeta        = 40

  ==> Algorithm <==

  SCF Algorithm Type is DF.
  DIIS enabled.
  MOM disabled.
  Fractional occupation disabled.
  Guess Type is CORE.
  Energy threshold   = 1.00e-06
  Density threshold  = 1.00e-06
  Integral threshold = 0.00e+00

  ==> Primary Basis <==

  Basis Set: 6-31G*
    Number of shells: 96
    Number of basis function: 186
    Number of Cartesian functions: 186
    Spherical Harmonics?: false
    Max angular momentum: 2

  ==> Pre-Iterations <==

   -------------------------------------------------------
    Irrep   Nso     Nmo     Nalpha   Nbeta   Ndocc  Nsocc
   -------------------------------------------------------
     A        186     186       0       0       0       0
   -------------------------------------------------------
    Total     186     186      40      40      40       0
   -------------------------------------------------------

 OEINTS: Overlap, kinetic, potential, dipole, and quadrupole integrals
         stored in file 35.

  ==> Integral Setup <==

  ==> DFJK: Density-Fitted J/K Matrices <==

    J tasked:                  Yes
    K tasked:                  Yes
    wK tasked:                  No
    OpenMP threads:              1
    Integrals threads:           1
    Memory (MB):              1430
    Algorithm:                Core
    Integral Cache:           NONE
    Schwarz Cutoff:          1E-12
    Fitting Condition:       1E-12

   => Auxiliary Basis Set <=

  Basis Set: 
    Number of shells: 402
    Number of basis function: 1260
    Number of Cartesian functions: 1260
    Spherical Harmonics?: false
    Max angular momentum: 3

  Minimum eigenvalue in the overlap matrix is 3.0924376116E-03.
  Using Symmetric Orthogonalization.
  SCF Guess: Core (One-Electron) Hamiltonian.

  ==> Iterations <==

                           Total Energy        Delta E     RMS |[F,P]|

   @DF-RHF iter   1:  -235.92790394872861   -2.35928e+02   6.88328e-02 
   @DF-RHF iter   2:  -152.53670726830308    8.33912e+01   6.99224e-02 DIIS
   @DF-RHF iter   3:  -378.59635779219252   -2.26060e+02   3.14694e-02 DIIS
   @DF-RHF iter   4:  -337.97467719026440    4.06217e+01   5.11267e-02 DIIS
   @DF-RHF iter   5:  -401.08800722439912   -6.31133e+01   2.78539e-02 DIIS
   @DF-RHF iter   6:  -392.53053055183034    8.55748e+00   2.84615e-02 DIIS
   @DF-RHF iter   7:  -423.36665505304188   -3.08361e+01   8.50931e-03 DIIS
   @DF-RHF iter   8:  -425.94460126125523   -2.57795e+00   3.40323e-03 DIIS
   @DF-RHF iter   9:  -426.13933907461046   -1.94738e-01   1.00335e-03 DIIS
   @DF-RHF iter  10:  -426.15739373718861   -1.80547e-02   4.46533e-04 DIIS
   @DF-RHF iter  11:  -426.16165700688987   -4.26327e-03   1.41076e-04 DIIS
   @DF-RHF iter  12:  -426.16213228638014   -4.75279e-04   5.21297e-05 DIIS
   @DF-RHF iter  13:  -426.16227289205392   -1.40606e-04   1.93870e-05 DIIS
   @DF-RHF iter  14:  -426.16229174248849   -1.88504e-05   6.83795e-06 DIIS
   @DF-RHF iter  15:  -426.16229439878362   -2.65630e-06   2.48093e-06 DIIS
   @DF-RHF iter  16:  -426.16229481196581   -4.13182e-07   1.01854e-06 DIIS
   @DF-RHF iter  17:  -426.16229491704428   -1.05078e-07   4.91793e-07 DIIS

  ==> Post-Iterations <==

    Orbital Energies (a.u.)
    -----------------------

    Doubly Occupied:                                                      

       1A    -20.549085     2A    -11.324651     3A    -11.231116  
       4A    -11.230216     5A    -11.219706     6A    -11.217397  
       7A    -11.213495     8A    -11.210960     9A    -11.209129  
      10A    -11.205003    11A     -1.396626    12A     -1.089006  
      13A     -1.077887    14A     -1.017252    15A     -0.986647  
      16A     -0.914015    17A     -0.873503    18A     -0.807635  
      19A     -0.782821    20A     -0.718464    21A     -0.673616  
      22A     -0.650129    23A     -0.631882    24A     -0.614266  
      25A     -0.610458    26A     -0.598094    27A     -0.573660  
      28A     -0.551940    29A     -0.545922    30A     -0.538452  
      31A     -0.525063    32A     -0.511299    33A     -0.496770  
      34A     -0.474966    35A     -0.469389    36A     -0.466034  
      37A     -0.462482    38A     -0.460447    39A     -0.456614  
      40A     -0.393638  

    Virtual:                                                              

      41A      0.165577    42A      0.213667    43A      0.243135  
      44A      0.256337    45A      0.270823    46A      0.279367  
      47A      0.290100    48A      0.294944    49A      0.307443  
      50A      0.316844    51A      0.322248    52A      0.325954  
      53A      0.335489    54A      0.341475    55A      0.346600  
      56A      0.354458    57A      0.362669    58A      0.371281  
      59A      0.379638    60A      0.391572    61A      0.396193  
      62A      0.410582    63A      0.432860    64A      0.443604  
      65A      0.455733    66A      0.479909    67A      0.503350  
      68A      0.557194    69A      0.693529    70A      0.708816  
      71A      0.717525    72A      0.727563    73A      0.745205  
      74A      0.750338    75A      0.757967    76A      0.782715  
      77A      0.797637    78A      0.843290    79A      0.854141  
      80A      0.866137    81A      0.901925    82A      0.914466  
      83A      0.933033    84A      0.947332    85A      0.959872  
      86A      0.974769    87A      0.980230    88A      1.006760  
      89A      1.028240    90A      1.035714    91A      1.068610  
      92A      1.097475    93A      1.102664    94A      1.117499  
      95A      1.131658    96A      1.137270    97A      1.143596  
      98A      1.154890    99A      1.169638   100A      1.176852  
     101A      1.188965   102A      1.191208   103A      1.194895  
     104A      1.204695   105A      1.217808   106A      1.227403  
     107A      1.229584   108A      1.239040   109A      1.248933  
     110A      1.264528   111A      1.265911   112A      1.282054  
     113A      1.293520   114A      1.301417   115A      1.315935  
     116A      1.364762   117A      1.415488   118A      1.455521  
     119A      1.484137   120A      1.582230   121A      1.656891  
     122A      1.694743   123A      1.703384   124A      1.734926  
     125A      1.761864   126A      1.770232   127A      1.836729  
     128A      1.861218   129A      1.875047   130A      1.943524  
     131A      1.945336   132A      2.001926   133A      2.018883  
     134A      2.084721   135A      2.121433   136A      2.123862  
     137A      2.147162   138A      2.179628   139A      2.202673  
     140A      2.220344   141A      2.233128   142A      2.255676  
     143A      2.282172   144A      2.295574   145A      2.305352  
     146A      2.321159   147A      2.338948   148A      2.376625  
     149A      2.384687   150A      2.410041   151A      2.437218  
     152A      2.496996   153A      2.530900   154A      2.566195  
     155A      2.617172   156A      2.646589   157A      2.669038  
     158A      2.680724   159A      2.699780   160A      2.718892  
     161A      2.721219   162A      2.733110   163A      2.764912  
     164A      2.791687   165A      2.800385   166A      2.825775  
     167A      2.902980   168A      2.930058   169A      2.962526  
     170A      2.976243   171A      3.034134   172A      3.082088  
     173A      3.141664   174A      3.219843   175A      3.406076  
     176A      3.420901   177A      4.503661   178A      4.534608  
     179A      4.591701   180A      4.635165   181A      4.738014  
     182A      4.801157   183A      4.847320   184A      4.950036  
     185A      4.976241   186A      5.017322  

    Final Occupation by Irrep:
              A 
    DOCC [    40 ]

  Energy converged.

  @DF-RHF Final Energy:  -426.16229491704428

   => Energetics <=

    Nuclear Repulsion Energy =            551.1929726846072981
    One-Electron Energy =               -1670.7512007002114842
    Two-Electron Energy =                 693.3959330985612723
    DFT Exchange-Correlation Energy =       0.0000000000000000
    Empirical Dispersion Energy =           0.0000000000000000
    PCM Polarization Energy =               0.0000000000000000
    EFP Energy =                            0.0000000000000000
    Total Energy =                       -426.1622949170428001

    Alert: EFP and PCM quantities not currently incorporated into SCF psivars.

Properties will be evaluated at   0.000000,   0.000000,   0.000000 Bohr
  ==> Properties <==


Properties computed using the SCF density matrix

  Nuclear Dipole Moment: (a.u.)
     X:    -2.6248      Y:    -0.5247      Z:     1.7759

  Electronic Dipole Moment: (a.u.)
     X:     2.0092      Y:     0.4535      Z:    -0.9944

  Dipole Moment: (a.u.)
     X:    -0.6157      Y:    -0.0711      Z:     0.7814     Total:     0.9974

  Dipole Moment: (Debye)
     X:    -1.5649      Y:    -0.1808      Z:     1.9862     Total:     2.5350


  Saving occupied orbitals to File 180.

*** tstop() called on cx1-3-4-4.cx1.hpc.ic.ac.uk at Tue Jul  5 17:51:34 2016
Module time:
	user time   =      37.37 seconds =       0.62 minutes
	system time =       0.35 seconds =       0.01 minutes
	total time  =         38 seconds =       0.63 minutes
Total time:
	user time   =      37.37 seconds =       0.62 minutes
	system time =       0.35 seconds =       0.01 minutes
	total time  =         38 seconds =       0.63 minutes


Properties will be evaluated at   0.000000,   0.000000,   0.000000 Bohr

Properties computed using the  density matrix

  Nuclear Dipole Moment: (a.u.)
     X:    -2.6248      Y:    -0.5247      Z:     1.7759

  Electronic Dipole Moment: (a.u.)
     X:     2.0092      Y:     0.4535      Z:    -0.9944

  Dipole Moment: (a.u.)
     X:    -0.6157      Y:    -0.0711      Z:     0.7814     Total:     0.9974

  Dipole Moment: (Debye)
     X:    -1.5649      Y:    -0.1808      Z:     1.9862     Total:     2.5350

  Quadrupole Moment: (Debye Ang)
    XX:   -65.2891     YY:   -64.8377     ZZ:   -66.1980
    XY:    -0.3623     XZ:     1.9502     YZ:    -0.3766

  Traceless Quadrupole Moment: (Debye Ang)
    XX:     0.1525     YY:     0.6039     ZZ:    -0.7564
    XY:    -0.3623     XZ:     1.9502     YZ:    -0.3766

  Mulliken Charges: (a.u.)
   Center  Symbol    Alpha    Beta     Spin     Total
       1     H     0.41662  0.41662  0.00000  0.16675
       2     C     3.24342  3.24342  0.00000 -0.48684
       3     C     3.15830  3.15830  0.00000 -0.31660
       4     H     0.42244  0.42244  0.00000  0.15512
       5     H     0.42620  0.42620  0.00000  0.14761
       6     C     3.15045  3.15045  0.00000 -0.30090
       7     H     0.41911  0.41911  0.00000  0.16179
       8     H     0.40929  0.40929  0.00000  0.18143
       9     C     3.21820  3.21820  0.00000 -0.43641
      10     H     0.40484  0.40484  0.00000  0.19033
      11     H     0.42161  0.42161  0.00000  0.15677
      12     C     2.72999  2.72999  0.00000  0.54001
      13     H     0.40326  0.40326  0.00000  0.19347
      14     H     0.40762  0.40762  0.00000  0.18476
      15     C     3.20762  3.20762  0.00000 -0.41524
      16     O     4.27051  4.27051  0.00000 -0.54102
      17     C     3.14678  3.14678  0.00000 -0.29356
      18     H     0.40129  0.40129  0.00000  0.19742
      19     H     0.41358  0.41358  0.00000  0.17285
      20     C     3.16535  3.16535  0.00000 -0.33071
      21     H     0.42023  0.42023  0.00000  0.15954
      22     H     0.41211  0.41211  0.00000  0.17578
      23     C     3.23919  3.23919  0.00000 -0.47838
      24     H     0.42941  0.42941  0.00000  0.14119
      25     H     0.39929  0.39929  0.00000  0.20142
      26     H     0.42459  0.42459  0.00000  0.15083
      27     H     0.41938  0.41938  0.00000  0.16125
      28     H     0.41932  0.41932  0.00000  0.16135

   Total alpha = 40.00000, Total beta = 40.00000, Total charge =  0.00000


*** PSI4 exiting successfully. Buy a developer a beer!
