    -----------------------------------------------------------------------
          Psi4: An Open-Source Ab Initio Electronic Structure Package
                              Psi4 (no tag) Driver

                          Git: Rev {detached?}  

    J. M. Turney, A. C. Simmonett, R. M. Parrish, E. G. Hohenstein,
    F. A. Evangelista, J. T. Fermann, B. J. Mintz, L. A. Burns, J. J. Wilke,
    M. L. Abrams, N. J. Russ, M. L. Leininger, C. L. Janssen, E. T. Seidl,
    W. D. Allen, H. F. Schaefer, R. A. King, E. F. Valeev, C. D. Sherrill,
    and T. D. Crawford, WIREs Comput. Mol. Sci. 2, 556-565 (2012)
    (doi: 10.1002/wcms.93)

                         Additional Contributions by
    A. E. DePrince, M. Saitow, U. Bozkaya, A. Yu. Sokolov
    -----------------------------------------------------------------------


    Psi4 started on: Tue Jul  5 16:31:14 2016

    Process ID:  25848
    PSI4DATADIR: /export131/home/mjharvey/miniconda3/share
    Memory level set to 256.000 MB

  ==> Input File <==

--------------------------------------------------------------------------
set {
	reference rhf
	basis 6-31G*
}


set_num_threads( 1 )
memory 2 gb

molecule MOL {
0 1

H	 2.772380	 0.594861	 -0.599989
N	 2.332695	 -0.069570	 0.000000
C	 0.936681	 -0.007078	 0.000000
H	 2.701754	 -0.982867	 -0.156398
C	 0.227108	 -0.002120	 -1.198267
C	 0.227108	 -0.002120	 1.198267
H	 0.761569	 -0.014657	 -2.132680
C	 -1.156334	 0.010459	 -1.192360
H	 0.761569	 -0.014657	 2.132680
C	 -1.156334	 0.010459	 1.192360
H	 -1.684791	 0.014915	 -2.129421
C	 -1.862085	 0.017996	 0.000000
H	 -1.684791	 0.014915	 2.129421
H	 -2.936703	 0.028387	 0.000000

	symmetry c1
}
ee = energy('scf')
oeprop('DIPOLE', 'QUADRUPOLE', 'MULLIKEN_CHARGES')
f=open( 'psi4out.xyz', 'w' )
f.write( "14  " )
f.write( str(ee) + "\n" )
f.write( MOL.save_string_xyz() )
f.close()
--------------------------------------------------------------------------

  Memory set to   2.000 GiB by Python script.

*** tstart() called on cx1-1-2-1.cx1.hpc.ic.ac.uk
*** at Tue Jul  5 16:31:15 2016


         ---------------------------------------------------------
                                   SCF
            by Justin Turney, Rob Parrish, and Andy Simmonett
                              RHF Reference
                        1 Threads,   2000 MiB Core
         ---------------------------------------------------------

  ==> Geometry <==

    Molecular point group: c1
    Full point group: C1

    Geometry (in Angstrom), charge = 0, multiplicity = 1:

       Center              X                  Y                   Z               Mass       
    ------------   -----------------  -----------------  -----------------  -----------------
           H          2.772863326118     0.605660248632    -0.591797259498     1.007825032070
           N          2.333178326118    -0.058770751368     0.008191740502    14.003074004780
           C          0.937164326118     0.003721248632     0.008191740502    12.000000000000
           H          2.702237326118    -0.972067751368    -0.148206259498     1.007825032070
           C          0.227591326118     0.008679248632    -1.190075259498    12.000000000000
           C          0.227591326118     0.008679248632     1.206458740502    12.000000000000
           H          0.762052326118    -0.003857751368    -2.124488259498     1.007825032070
           C         -1.155850673882     0.021258248632    -1.184168259498    12.000000000000
           H          0.762052326118    -0.003857751368     2.140871740502     1.007825032070
           C         -1.155850673882     0.021258248632     1.200551740502    12.000000000000
           H         -1.684307673882     0.025714248632    -2.121229259498     1.007825032070
           C         -1.861601673882     0.028795248632     0.008191740502    12.000000000000
           H         -1.684307673882     0.025714248632     2.137612740502     1.007825032070
           H         -2.936219673882     0.039186248632     0.008191740502     1.007825032070

  Running in c1 symmetry.

  Rotational constants: A =      0.19041  B =      0.08699  C =      0.06027 [cm^-1]
  Rotational constants: A =   5708.48868  B =   2607.94181  C =   1806.78122 [MHz]
  Nuclear repulsion =  272.978401961452050

  Charge       = 0
  Multiplicity = 1
  Electrons    = 50
  Nalpha       = 25
  Nbeta        = 25

  ==> Algorithm <==

  SCF Algorithm Type is DF.
  DIIS enabled.
  MOM disabled.
  Fractional occupation disabled.
  Guess Type is CORE.
  Energy threshold   = 1.00e-06
  Density threshold  = 1.00e-06
  Integral threshold = 0.00e+00

  ==> Primary Basis <==

  Basis Set: 6-31G*
    Number of shells: 56
    Number of basis function: 119
    Number of Cartesian functions: 119
    Spherical Harmonics?: false
    Max angular momentum: 2

  ==> Pre-Iterations <==

   -------------------------------------------------------
    Irrep   Nso     Nmo     Nalpha   Nbeta   Ndocc  Nsocc
   -------------------------------------------------------
     A        119     119       0       0       0       0
   -------------------------------------------------------
    Total     119     119      25      25      25       0
   -------------------------------------------------------

 OEINTS: Overlap, kinetic, potential, dipole, and quadrupole integrals
         stored in file 35.

  ==> Integral Setup <==

  ==> DFJK: Density-Fitted J/K Matrices <==

    J tasked:                  Yes
    K tasked:                  Yes
    wK tasked:                  No
    OpenMP threads:              1
    Integrals threads:           1
    Memory (MB):              1430
    Algorithm:                Core
    Integral Cache:           NONE
    Schwarz Cutoff:          1E-12
    Fitting Condition:       1E-12

   => Auxiliary Basis Set <=

  Basis Set: 
    Number of shells: 231
    Number of basis function: 742
    Number of Cartesian functions: 742
    Spherical Harmonics?: false
    Max angular momentum: 3

  Minimum eigenvalue in the overlap matrix is 4.2704255069E-04.
  Using Symmetric Orthogonalization.
  SCF Guess: Core (One-Electron) Hamiltonian.

  ==> Iterations <==

                           Total Energy        Delta E     RMS |[F,P]|

   @DF-RHF iter   1:  -224.87447856457351   -2.24874e+02   7.09533e-02 
   @DF-RHF iter   2:  -234.32772526264125   -9.45325e+00   5.30583e-02 DIIS
   @DF-RHF iter   3:  -268.11055299073382   -3.37828e+01   3.60178e-02 DIIS
   @DF-RHF iter   4:  -268.19565794018877   -8.51049e-02   3.75768e-02 DIIS
   @DF-RHF iter   5:  -285.08484033764068   -1.68892e+01   8.85636e-03 DIIS
   @DF-RHF iter   6:  -285.67681811103228   -5.91978e-01   2.47316e-03 DIIS
   @DF-RHF iter   7:  -285.71478528485034   -3.79672e-02   9.74297e-04 DIIS
   @DF-RHF iter   8:  -285.72161634635290   -6.83106e-03   3.81377e-04 DIIS
   @DF-RHF iter   9:  -285.72273659131827   -1.12024e-03   1.49650e-04 DIIS
   @DF-RHF iter  10:  -285.72292810525892   -1.91514e-04   3.03287e-05 DIIS
   @DF-RHF iter  11:  -285.72293913143483   -1.10262e-05   1.21117e-05 DIIS
   @DF-RHF iter  12:  -285.72294098413124   -1.85270e-06   5.72458e-06 DIIS
   @DF-RHF iter  13:  -285.72294155351460   -5.69383e-07   1.78417e-06 DIIS
   @DF-RHF iter  14:  -285.72294165151095   -9.79963e-08   8.34312e-07 DIIS

  ==> Post-Iterations <==

    Orbital Energies (a.u.)
    -----------------------

    Doubly Occupied:                                                      

       1A    -15.541108     2A    -11.257956     3A    -11.227324  
       4A    -11.226268     5A    -11.223873     6A    -11.221887  
       7A    -11.219659     8A     -1.210411     9A     -1.124972  
      10A     -1.009792    11A     -0.982646    12A     -0.823387  
      13A     -0.807597    14A     -0.701747    15A     -0.669185  
      16A     -0.649285    17A     -0.623117    18A     -0.592389  
      19A     -0.579666    20A     -0.506059    21A     -0.495958  
      22A     -0.489041    23A     -0.399560    24A     -0.329505  
      25A     -0.318225  

    Virtual:                                                              

      26A      0.148941    27A      0.153628    28A      0.239636  
      29A      0.245205    30A      0.295520    31A      0.309239  
      32A      0.316346    33A      0.339155    34A      0.347023  
      35A      0.390653    36A      0.453407    37A      0.486020  
      38A      0.495498    39A      0.538795    40A      0.564555  
      41A      0.679531    42A      0.746121    43A      0.758616  
      44A      0.761275    45A      0.787237    46A      0.824859  
      47A      0.832388    48A      0.836840    49A      0.844897  
      50A      0.847627    51A      0.853602    52A      0.897050  
      53A      0.914629    54A      0.929657    55A      0.998415  
      56A      1.016164    57A      1.030193    58A      1.103688  
      59A      1.118295    60A      1.121025    61A      1.133901  
      62A      1.138556    63A      1.176261    64A      1.199711  
      65A      1.215528    66A      1.233870    67A      1.238369  
      68A      1.280673    69A      1.304854    70A      1.361524  
      71A      1.378619    72A      1.459679    73A      1.463745  
      74A      1.517369    75A      1.598618    76A      1.684424  
      77A      1.719151    78A      1.734714    79A      1.748824  
      80A      1.775809    81A      1.783046    82A      1.803511  
      83A      2.094689    84A      2.102743    85A      2.146675  
      86A      2.188223    87A      2.217427    88A      2.238377  
      89A      2.298744    90A      2.330640    91A      2.407595  
      92A      2.422934    93A      2.461698    94A      2.470549  
      95A      2.514592    96A      2.542659    97A      2.610794  
      98A      2.635968    99A      2.660356   100A      2.711711  
     101A      2.824192   102A      2.908892   103A      2.922567  
     104A      2.955449   105A      3.042460   106A      3.098620  
     107A      3.105495   108A      3.117658   109A      3.206818  
     110A      3.254586   111A      3.484220   112A      3.841669  
     113A      4.282343   114A      4.531466   115A      4.552020  
     116A      4.567199   117A      4.766214   118A      4.793885  
     119A      5.139179  

    Final Occupation by Irrep:
              A 
    DOCC [    25 ]

  Energy converged.

  @DF-RHF Final Energy:  -285.72294165151095

   => Energetics <=

    Nuclear Repulsion Energy =            272.9784019614520503
    One-Electron Energy =                -926.9414646180714499
    Two-Electron Energy =                 368.2401210051079374
    DFT Exchange-Correlation Energy =       0.0000000000000000
    Empirical Dispersion Energy =           0.0000000000000000
    PCM Polarization Energy =               0.0000000000000000
    EFP Energy =                            0.0000000000000000
    Total Energy =                       -285.7229416515114622

    Alert: EFP and PCM quantities not currently incorporated into SCF psivars.

Properties will be evaluated at   0.000000,   0.000000,   0.000000 Bohr
  ==> Properties <==


Properties computed using the SCF density matrix

  Nuclear Dipole Moment: (a.u.)
     X:     0.6442      Y:    -0.2656      Z:    -0.6554

  Electronic Dipole Moment: (a.u.)
     X:    -0.5780      Y:     0.1045      Z:     0.2008

  Dipole Moment: (a.u.)
     X:     0.0662      Y:    -0.1611      Z:    -0.4545     Total:     0.4868

  Dipole Moment: (Debye)
     X:     0.1682      Y:    -0.4095      Z:    -1.1553     Total:     1.2372


  Saving occupied orbitals to File 180.

*** tstop() called on cx1-1-2-1.cx1.hpc.ic.ac.uk at Tue Jul  5 16:31:22 2016
Module time:
	user time   =       7.48 seconds =       0.12 minutes
	system time =       0.04 seconds =       0.00 minutes
	total time  =          7 seconds =       0.12 minutes
Total time:
	user time   =       7.48 seconds =       0.12 minutes
	system time =       0.04 seconds =       0.00 minutes
	total time  =          7 seconds =       0.12 minutes


Properties will be evaluated at   0.000000,   0.000000,   0.000000 Bohr

Properties computed using the  density matrix

  Nuclear Dipole Moment: (a.u.)
     X:     0.6442      Y:    -0.2656      Z:    -0.6554

  Electronic Dipole Moment: (a.u.)
     X:    -0.5780      Y:     0.1045      Z:     0.2008

  Dipole Moment: (a.u.)
     X:     0.0662      Y:    -0.1611      Z:    -0.4545     Total:     0.4868

  Dipole Moment: (Debye)
     X:     0.1682      Y:    -0.4095      Z:    -1.1553     Total:     1.2372

  Quadrupole Moment: (Debye Ang)
    XX:   -36.9203     YY:   -43.5840     ZZ:   -37.8735
    XY:    -1.2250     XZ:    -3.9204     YZ:    -0.5353

  Traceless Quadrupole Moment: (Debye Ang)
    XX:     2.5389     YY:    -4.1247     ZZ:     1.5857
    XY:    -1.2250     XZ:    -3.9204     YZ:    -0.5353

  Mulliken Charges: (a.u.)
   Center  Symbol    Alpha    Beta     Spin     Total
       1     H     0.32282  0.32282  0.00000  0.35436
       2     N     3.95364  3.95364  0.00000 -0.90729
       3     C     2.89001  2.89001  0.00000  0.21998
       4     H     0.32006  0.32006  0.00000  0.35988
       5     C     3.10975  3.10975  0.00000 -0.21950
       6     C     3.10052  3.10052  0.00000 -0.20105
       7     H     0.40332  0.40332  0.00000  0.19337
       8     C     3.09971  3.09971  0.00000 -0.19942
       9     H     0.39468  0.39468  0.00000  0.21063
      10     C     3.10024  3.10024  0.00000 -0.20047
      11     H     0.40185  0.40185  0.00000  0.19631
      12     C     3.10261  3.10261  0.00000 -0.20522
      13     H     0.40086  0.40086  0.00000  0.19828
      14     H     0.39992  0.39992  0.00000  0.20017

   Total alpha = 25.00000, Total beta = 25.00000, Total charge =  0.00000


*** PSI4 exiting successfully. Buy a developer a beer!
