    -----------------------------------------------------------------------
          Psi4: An Open-Source Ab Initio Electronic Structure Package
                              Psi4 (no tag) Driver

                          Git: Rev {detached?}  

    J. M. Turney, A. C. Simmonett, R. M. Parrish, E. G. Hohenstein,
    F. A. Evangelista, J. T. Fermann, B. J. Mintz, L. A. Burns, J. J. Wilke,
    M. L. Abrams, N. J. Russ, M. L. Leininger, C. L. Janssen, E. T. Seidl,
    W. D. Allen, H. F. Schaefer, R. A. King, E. F. Valeev, C. D. Sherrill,
    and T. D. Crawford, WIREs Comput. Mol. Sci. 2, 556-565 (2012)
    (doi: 10.1002/wcms.93)

                         Additional Contributions by
    A. E. DePrince, M. Saitow, U. Bozkaya, A. Yu. Sokolov
    -----------------------------------------------------------------------


    Psi4 started on: Tue Jul  5 16:24:37 2016

    Process ID:  28321
    PSI4DATADIR: /export131/home/mjharvey/miniconda3/share
    Memory level set to 256.000 MB

  ==> Input File <==

--------------------------------------------------------------------------
set {
	reference rhf
	basis 6-31G*
}


set_num_threads( 1 )
memory 2 gb

molecule MOL {
0 1

H	 1.459103	 0.593459	 -2.060296
O	 0.618456	 0.433426	 -1.656290
C	 0.702312	 0.627605	 -0.264544
C	 -0.714990	 0.596302	 0.266387
H	 1.153583	 1.589617	 -0.037075
H	 1.296925	 -0.154212	 0.203133
O	 -1.405996	 -0.526611	 -0.195820
H	 -1.257453	 1.468809	 -0.075599
H	 -0.688972	 0.618407	 1.353696
H	 -1.952054	 -0.251303	 -0.921106

	symmetry c1
}
set optking {
	frozen_dihedral = ("
		5 3 4 7
	")
}

ee = energy('scf')
oeprop('DIPOLE', 'QUADRUPOLE', 'MULLIKEN_CHARGES')
f=open( 'psi4out.xyz', 'w' )
f.write( "10  " )
f.write( str(ee) + "\n" )
f.write( MOL.save_string_xyz() )
f.close()
--------------------------------------------------------------------------

  Memory set to   2.000 GiB by Python script.

*** tstart() called on cx1-49-4-2.cx1.hpc.ic.ac.uk
*** at Tue Jul  5 16:24:38 2016


         ---------------------------------------------------------
                                   SCF
            by Justin Turney, Rob Parrish, and Andy Simmonett
                              RHF Reference
                        1 Threads,   2000 MiB Core
         ---------------------------------------------------------

  ==> Geometry <==

    Molecular point group: c1
    Full point group: C1

    Geometry (in Angstrom), charge = 0, multiplicity = 1:

       Center              X                  Y                   Z               Mass       
    ------------   -----------------  -----------------  -----------------  -----------------
           H          1.664425585536     0.317954419624    -1.558150311449     1.007825032070
           O          0.823778585536     0.157921419624    -1.154144311449    15.994914619560
           C          0.907634585536     0.352100419624     0.237601688551    12.000000000000
           C         -0.509667414464     0.320797419624     0.768532688551    12.000000000000
           H          1.358905585536     1.314112419624     0.465070688551     1.007825032070
           H          1.502247585536    -0.429716580376     0.705278688551     1.007825032070
           O         -1.200673414464    -0.802115580376     0.306325688551    15.994914619560
           H         -1.052130414464     1.193304419624     0.426546688551     1.007825032070
           H         -0.483649414464     0.342902419624     1.855841688551     1.007825032070
           H         -1.746731414464    -0.526807580376    -0.418960311449     1.007825032070

  Running in c1 symmetry.

  Rotational constants: A =      0.50990  B =      0.19595  C =      0.15735 [cm^-1]
  Rotational constants: A =  15286.49512  B =   5874.36494  C =   4717.23573 [MHz]
  Nuclear repulsion =  134.543315391011959

  Charge       = 0
  Multiplicity = 1
  Electrons    = 34
  Nalpha       = 17
  Nbeta        = 17

  ==> Algorithm <==

  SCF Algorithm Type is DF.
  DIIS enabled.
  MOM disabled.
  Fractional occupation disabled.
  Guess Type is CORE.
  Energy threshold   = 1.00e-06
  Density threshold  = 1.00e-06
  Integral threshold = 0.00e+00

  ==> Primary Basis <==

  Basis Set: 6-31G*
    Number of shells: 36
    Number of basis function: 72
    Number of Cartesian functions: 72
    Spherical Harmonics?: false
    Max angular momentum: 2

  ==> Pre-Iterations <==

   -------------------------------------------------------
    Irrep   Nso     Nmo     Nalpha   Nbeta   Ndocc  Nsocc
   -------------------------------------------------------
     A         72      72       0       0       0       0
   -------------------------------------------------------
    Total      72      72      17      17      17       0
   -------------------------------------------------------

 OEINTS: Overlap, kinetic, potential, dipole, and quadrupole integrals
         stored in file 35.

  ==> Integral Setup <==

  ==> DFJK: Density-Fitted J/K Matrices <==

    J tasked:                  Yes
    K tasked:                  Yes
    wK tasked:                  No
    OpenMP threads:              1
    Integrals threads:           1
    Memory (MB):              1430
    Algorithm:                Core
    Integral Cache:           NONE
    Schwarz Cutoff:          1E-12
    Fitting Condition:       1E-12

   => Auxiliary Basis Set <=

  Basis Set: 
    Number of shells: 150
    Number of basis function: 474
    Number of Cartesian functions: 474
    Spherical Harmonics?: false
    Max angular momentum: 3

  Minimum eigenvalue in the overlap matrix is 4.7929288838E-03.
  Using Symmetric Orthogonalization.
  SCF Guess: Core (One-Electron) Hamiltonian.

  ==> Iterations <==

                           Total Energy        Delta E     RMS |[F,P]|

   @DF-RHF iter   1:  -200.44479791386692   -2.00445e+02   8.44081e-02 
   @DF-RHF iter   2:  -191.79525738084976    8.64954e+00   7.67078e-02 DIIS
   @DF-RHF iter   3:  -223.39464643871651   -3.15994e+01   4.00999e-02 DIIS
   @DF-RHF iter   4:  -228.30508748293551   -4.91044e+00   1.52696e-02 DIIS
   @DF-RHF iter   5:  -228.86143647661731   -5.56349e-01   4.91152e-03 DIIS
   @DF-RHF iter   6:  -228.91285090078583   -5.14144e-02   1.26731e-03 DIIS
   @DF-RHF iter   7:  -228.91717907096444   -4.32817e-03   4.99941e-04 DIIS
   @DF-RHF iter   8:  -228.91789038238488   -7.11311e-04   1.26066e-04 DIIS
   @DF-RHF iter   9:  -228.91794595436585   -5.55720e-05   3.38069e-05 DIIS
   @DF-RHF iter  10:  -228.91795115045295   -5.19609e-06   9.64286e-06 DIIS
   @DF-RHF iter  11:  -228.91795158378744   -4.33334e-07   2.30907e-06 DIIS
   @DF-RHF iter  12:  -228.91795161046429   -2.66768e-08   7.71828e-07 DIIS

  ==> Post-Iterations <==

    Orbital Energies (a.u.)
    -----------------------

    Doubly Occupied:                                                      

       1A    -20.556210     2A    -20.547800     3A    -11.270419  
       4A    -11.269254     5A     -1.373145     6A     -1.346579  
       7A     -0.999857     8A     -0.834512     9A     -0.713225  
      10A     -0.703852    11A     -0.617455    12A     -0.599590  
      13A     -0.588338    14A     -0.514965    15A     -0.488209  
      16A     -0.445354    17A     -0.428899  

    Virtual:                                                              

      18A      0.217736    19A      0.244234    20A      0.273795  
      21A      0.312299    22A      0.320752    23A      0.355647  
      24A      0.388759    25A      0.420546    26A      0.442493  
      27A      0.753349    28A      0.808040    29A      0.813643  
      30A      0.827401    31A      0.906593    32A      0.920718  
      33A      1.060933    34A      1.098302    35A      1.110154  
      36A      1.131950    37A      1.172344    38A      1.188979  
      39A      1.209482    40A      1.248952    41A      1.276453  
      42A      1.293902    43A      1.322272    44A      1.407118  
      45A      1.494060    46A      1.605674    47A      1.680017  
      48A      1.740678    49A      1.815075    50A      1.910611  
      51A      2.001120    52A      2.015386    53A      2.075842  
      54A      2.110726    55A      2.239775    56A      2.386891  
      57A      2.432976    58A      2.457786    59A      2.507224  
      60A      2.683365    61A      2.705880    62A      2.745202  
      63A      2.794122    64A      2.875839    65A      2.888591  
      66A      3.049612    67A      3.193304    68A      3.242636  
      69A      4.149583    70A      4.201780    71A      4.636087  
      72A      4.858009  

    Final Occupation by Irrep:
              A 
    DOCC [    17 ]

  Energy converged.

  @DF-RHF Final Energy:  -228.91795161046429

   => Energetics <=

    Nuclear Repulsion Energy =            134.5433153910119586
    One-Electron Energy =                -580.3273432599931994
    Two-Electron Energy =                 216.8660762585171540
    DFT Exchange-Correlation Energy =       0.0000000000000000
    Empirical Dispersion Energy =           0.0000000000000000
    PCM Polarization Energy =               0.0000000000000000
    EFP Energy =                            0.0000000000000000
    Total Energy =                       -228.9179516104640868

    Alert: EFP and PCM quantities not currently incorporated into SCF psivars.

Properties will be evaluated at   0.000000,   0.000000,   0.000000 Bohr
  ==> Properties <==


Properties computed using the SCF density matrix

  Nuclear Dipole Moment: (a.u.)
     X:     1.1635      Y:     2.0704      Z:     1.3793

  Electronic Dipole Moment: (a.u.)
     X:    -0.6592      Y:    -1.2183      Z:    -1.3808

  Dipole Moment: (a.u.)
     X:     0.5043      Y:     0.8520      Z:    -0.0015     Total:     0.9901

  Dipole Moment: (Debye)
     X:     1.2819      Y:     2.1656      Z:    -0.0039     Total:     2.5166


  Saving occupied orbitals to File 180.

*** tstop() called on cx1-49-4-2.cx1.hpc.ic.ac.uk at Tue Jul  5 16:24:41 2016
Module time:
	user time   =       2.50 seconds =       0.04 minutes
	system time =       0.02 seconds =       0.00 minutes
	total time  =          3 seconds =       0.05 minutes
Total time:
	user time   =       2.50 seconds =       0.04 minutes
	system time =       0.02 seconds =       0.00 minutes
	total time  =          3 seconds =       0.05 minutes


Properties will be evaluated at   0.000000,   0.000000,   0.000000 Bohr

Properties computed using the  density matrix

  Nuclear Dipole Moment: (a.u.)
     X:     1.1635      Y:     2.0704      Z:     1.3793

  Electronic Dipole Moment: (a.u.)
     X:    -0.6592      Y:    -1.2183      Z:    -1.3808

  Dipole Moment: (a.u.)
     X:     0.5043      Y:     0.8520      Z:    -0.0015     Total:     0.9901

  Dipole Moment: (Debye)
     X:     1.2819      Y:     2.1656      Z:    -0.0039     Total:     2.5166

  Quadrupole Moment: (Debye Ang)
    XX:   -19.2723     YY:   -26.8172     ZZ:   -23.9655
    XY:    -0.7234     XZ:     0.3627     YZ:     0.7810

  Traceless Quadrupole Moment: (Debye Ang)
    XX:     4.0793     YY:    -3.4655     ZZ:    -0.6139
    XY:    -0.7234     XZ:     0.3627     YZ:     0.7810

  Mulliken Charges: (a.u.)
   Center  Symbol    Alpha    Beta     Spin     Total
       1     H     0.27979  0.27979  0.00000  0.44041
       2     O     4.37126  4.37126  0.00000 -0.74251
       3     C     3.00081  3.00081  0.00000 -0.00162
       4     C     3.00352  3.00352  0.00000 -0.00705
       5     H     0.43260  0.43260  0.00000  0.13479
       6     H     0.42392  0.42392  0.00000  0.15216
       7     O     4.36456  4.36456  0.00000 -0.72912
       8     H     0.42774  0.42774  0.00000  0.14451
       9     H     0.42073  0.42073  0.00000  0.15853
      10     H     0.27505  0.27505  0.00000  0.44990

   Total alpha = 17.00000, Total beta = 17.00000, Total charge =  0.00000


*** PSI4 exiting successfully. Buy a developer a beer!
