
    -----------------------------------------------------------------------
          Psi4: An Open-Source Ab Initio Electronic Structure Package
                               Psi4 1.1 release

                         Git: Rev {HEAD} add49b9 


    R. M. Parrish, L. A. Burns, D. G. A. Smith, A. C. Simmonett,
    A. E. DePrince III, E. G. Hohenstein, U. Bozkaya, A. Yu. Sokolov,
    R. Di Remigio, R. M. Richard, J. F. Gonthier, A. M. James,
    H. R. McAlexander, A. Kumar, M. Saitow, X. Wang, B. P. Pritchard,
    P. Verma, H. F. Schaefer III, K. Patkowski, R. A. King, E. F. Valeev,
    F. A. Evangelista, J. M. Turney, T. D. Crawford, and C. D. Sherrill,
    J. Chem. Theory Comput. in press (2017).
    (doi: 10.1021/acs.jctc.7b00174)

    -----------------------------------------------------------------------


    Psi4 started on: Friday, 11 August 2017 01:52PM

    Process ID:   4643
    PSIDATADIR: /home/raimis/opt/miniconda3/envs/htmd/share/psi4
    Memory:     500.0 MiB
    Threads:    1
    
  ==> Input File <==

--------------------------------------------------------------------------
set {
	reference rks
	basis cc-pvdz
}


set_num_threads( 8 )
memory 2 gb

molecule MOL {
0 1

O	 1.014300	 -0.002300	 0.060500
O	 2.462400	 -0.107500	 -0.002400
H	 0.862091	 -0.839960	 0.538160
H	 2.655500	 0.713700	 0.488700

	symmetry c1
}
set optking { dynamic_level = 1 }
set optking {
	frozen_dihedral = ("
		3 1 2 4
	")
}

ee,wfn = energy('b3lyp-d3', return_wfn=True)
oeprop( wfn, 'DIPOLE', 'QUADRUPOLE', 'MULLIKEN_CHARGES')
f=open( 'psi4out.xyz', 'w' )
f.write( "4  " )
f.write( str(ee) + "\n" )
f.write( MOL.save_string_xyz() )
f.close()
--------------------------------------------------------------------------
  Threads set to 8 by Python driver.

  Memory set to   1.863 GiB by Python driver.

*** tstart() called on computer03
*** at Fri Aug 11 13:52:15 2017

   => Loading Basis Set <=

    Name: CC-PVDZ
    Role: ORBITAL
    Keyword: BASIS
    atoms 1-2 entry O          line   190 file /home/raimis/opt/miniconda3/envs/htmd/share/psi4/basis/cc-pvdz.gbs 
    atoms 3-4 entry H          line    20 file /home/raimis/opt/miniconda3/envs/htmd/share/psi4/basis/cc-pvdz.gbs 


         ---------------------------------------------------------
                                   SCF
            by Justin Turney, Rob Parrish, and Andy Simmonett
                              RKS Reference
                        8 Threads,   1907 MiB Core
         ---------------------------------------------------------

  ==> Geometry <==

    Molecular point group: c1
    Full point group: C1

    Geometry (in Angstrom), charge = 0, multiplicity = 1:

       Center              X                  Y                   Z               Mass       
    ------------   -----------------  -----------------  -----------------  -----------------
           O         -0.725261892149     0.053087827267     0.002738727638    15.994914619560
           O          0.722838107851    -0.052112172733    -0.060161272362    15.994914619560
           H         -0.877470892149    -0.784572172733     0.480398727638     1.007825032070
           H          0.915938107851     0.769087827267     0.430938727638     1.007825032070

  Running in c1 symmetry.

  Rotational constants: A =      9.63809  B =      0.89328  C =      0.85445 [cm^-1]
  Rotational constants: A = 288942.63813  B =  26779.77236  C =  25615.89868 [MHz]
  Nuclear repulsion =   36.799360879560368

  Charge       = 0
  Multiplicity = 1
  Electrons    = 18
  Nalpha       = 9
  Nbeta        = 9

  ==> Algorithm <==

  SCF Algorithm Type is DF.
  DIIS enabled.
  MOM disabled.
  Fractional occupation disabled.
  Guess Type is SAD.
  Energy threshold   = 1.00e-06
  Density threshold  = 1.00e-06
  Integral threshold = 0.00e+00

  ==> Primary Basis <==

  Basis Set: CC-PVDZ
    Blend: CC-PVDZ
    Number of shells: 18
    Number of basis function: 38
    Number of Cartesian functions: 40
    Spherical Harmonics?: true
    Max angular momentum: 2

  ==> DFT Potential <==

   => B3LYP Composite Functional <= 

    B3LYP Hybrid-GGA Exchange-Correlation Functional (VWN1-RPA)

    P.J. Stephens et. al., J. Phys. Chem., 98, 11623-11627, 1994

    Points   =           5000
    Deriv    =              1
    GGA      =           TRUE
    Meta     =          FALSE

    X_LRC        =          FALSE
    X_Hybrid     =           TRUE
    X_Alpha      =   2.000000E-01
    X_Omega      =   0.000000E+00
    C_LRC        =          FALSE
    C_Hybrid     =          FALSE
    C_Alpha      =   0.000000E+00
    C_Omega      =   0.000000E+00

   => Exchange Functionals <=

    0.8000    B3_X
    0.2000      HF 

   => Correlation Functionals <=

    0.1900 VWN3RPA_C
    0.8100   LYP_C

   => Molecular Quadrature <=

    Radial Scheme    =       TREUTLER
    Pruning Scheme   =           FLAT
    Nuclear Scheme   =       TREUTLER

    BS radius alpha  =              1
    Pruning alpha    =              1
    Radial Points    =             75
    Spherical Points =            302
    Total Points     =          88342
    Total Blocks     =             87
    Max Points       =           4347
    Max Functions    =             38

   => -D3ZERO: Empirical Dispersion <=

    Grimme's -D3 (zero-damping) Dispersion Correction
    Grimme S.; Antony J.; Ehrlich S.; Krieg H. (2010), J. Chem. Phys., 132: 154104

        S6 =   1.000000E+00
        S8 =   1.703000E+00
       SR6 =   1.261000E+00
    ALPHA6 =   1.400000E+01

   => Loading Basis Set <=

    Name: (CC-PVDZ AUX)
    Role: JKFIT
    Keyword: DF_BASIS_SCF
    atoms 1-2 entry O          line   220 file /home/raimis/opt/miniconda3/envs/htmd/share/psi4/basis/cc-pvdz-jkfit.gbs 
    atoms 3-4 entry H          line    50 file /home/raimis/opt/miniconda3/envs/htmd/share/psi4/basis/cc-pvdz-jkfit.gbs 

  ==> Pre-Iterations <==

   -------------------------------------------------------
    Irrep   Nso     Nmo     Nalpha   Nbeta   Ndocc  Nsocc
   -------------------------------------------------------
     A         38      38       0       0       0       0
   -------------------------------------------------------
    Total      38      38       9       9       9       0
   -------------------------------------------------------

  ==> Integral Setup <==

  ==> DFJK: Density-Fitted J/K Matrices <==

    J tasked:                  Yes
    K tasked:                  Yes
    wK tasked:                  No
    OpenMP threads:              8
    Integrals threads:           8
    Memory (MB):              1430
    Algorithm:                Core
    Integral Cache:           NONE
    Schwarz Cutoff:          1E-12
    Fitting Condition:       1E-12

   => Auxiliary Basis Set <=

  Basis Set: (CC-PVDZ AUX)
    Blend: CC-PVDZ-JKFIT
    Number of shells: 66
    Number of basis function: 186
    Number of Cartesian functions: 212
    Spherical Harmonics?: true
    Max angular momentum: 3

  Minimum eigenvalue in the overlap matrix is 2.5208215117E-02.
  Using Symmetric Orthogonalization.

  SCF Guess: Superposition of Atomic Densities via on-the-fly atomic UHF.

  ==> Iterations <==

                           Total Energy        Delta E     RMS |[F,P]|

   @DF-RKS iter   0:  -151.54492842695348   -1.51545e+02   7.90350e-02 
   @DF-RKS iter   1:  -151.51726111614278    2.76673e-02   1.43079e-02 
   @DF-RKS iter   2:  -151.51474376625993    2.51735e-03   1.59179e-02 DIIS
   @DF-RKS iter   3:  -151.55008178814379   -3.53380e-02   8.91581e-04 DIIS
   @DF-RKS iter   4:  -151.55032556698805   -2.43779e-04   1.47400e-04 DIIS
   @DF-RKS iter   5:  -151.55032593894236   -3.71954e-07   1.17274e-04 DIIS
   @DF-RKS iter   6:  -151.55032949551187   -3.55657e-06   1.95853e-05 DIIS
   @DF-RKS iter   7:  -151.55032955934496   -6.38331e-08   1.84568e-06 DIIS
   @DF-RKS iter   8:  -151.55032956021532   -8.70358e-10   1.50857e-07 DIIS

  ==> Post-Iterations <==

    Orbital Energies (a.u.)
    -----------------------

    Doubly Occupied:                                                      

       1A    -19.187627     2A    -19.187586     3A     -1.111917  
       4A     -0.886412     5A     -0.510193     6A     -0.490444  
       7A     -0.411432     8A     -0.317208     9A     -0.265276  

    Virtual:                                                              

      10A      0.025119    11A      0.050217    12A      0.103934  
      13A      0.572895    14A      0.582462    15A      0.846610  
      16A      0.871099    17A      0.889231    18A      0.946008  
      19A      1.016125    20A      1.062164    21A      1.203261  
      22A      1.272311    23A      1.386575    24A      1.418868  
      25A      1.676956    26A      1.721932    27A      2.067406  
      28A      2.083634    29A      2.392703    30A      2.424841  
      31A      2.572136    32A      2.886400    33A      2.906240  
      34A      3.039496    35A      3.140014    36A      3.493926  
      37A      3.526285    38A      3.828234  

    Final Occupation by Irrep:
              A 
    DOCC [     9 ]

  Energy converged.

  @DF-RKS Final Energy:  -151.55032956021532

   => Energetics <=

    Nuclear Repulsion Energy =             36.7993608795603677
    One-Electron Energy =                -281.5787550095941469
    Two-Electron Energy =                 107.6917221462205845
    DFT Exchange-Correlation Energy =     -14.4623374764020980
    Empirical Dispersion Energy =          -0.0003201000000000
    PCM Polarization Energy =               0.0000000000000000
    EFP Energy =                            0.0000000000000000
    Total Energy =                       -151.5503295602153173



Properties will be evaluated at   0.000000,   0.000000,   0.000000 Bohr

Properties computed using the SCF density matrix

  Nuclear Dipole Moment: (a.u.)
     X:     0.0361      Y:    -0.0145      Z:     0.8541

  Electronic Dipole Moment: (a.u.)
     X:    -0.0084      Y:     0.0034      Z:    -0.1986

  Dipole Moment: (a.u.)
     X:     0.0277      Y:    -0.0111      Z:     0.6554     Total:     0.6561

  Dipole Moment: (Debye)
     X:     0.0703      Y:    -0.0282      Z:     1.6660     Total:     1.6677


*** tstop() called on computer03 at Fri Aug 11 13:52:20 2017
Module time:
	user time   =      16.86 seconds =       0.28 minutes
	system time =       0.57 seconds =       0.01 minutes
	total time  =          5 seconds =       0.08 minutes
Total time:
	user time   =      16.86 seconds =       0.28 minutes
	system time =       0.57 seconds =       0.01 minutes
	total time  =          5 seconds =       0.08 minutes


Properties will be evaluated at   0.000000,   0.000000,   0.000000 Bohr

Properties computed using the  density matrix

  Nuclear Dipole Moment: (a.u.)
     X:     0.0361      Y:    -0.0145      Z:     0.8541

  Electronic Dipole Moment: (a.u.)
     X:    -0.0084      Y:     0.0034      Z:    -0.1986

  Dipole Moment: (a.u.)
     X:     0.0277      Y:    -0.0111      Z:     0.6554     Total:     0.6561

  Dipole Moment: (Debye)
     X:     0.0703      Y:    -0.0282      Z:     1.6660     Total:     1.6677

  Quadrupole Moment: (Debye Ang)
    XX:   -10.9445     YY:    -9.3767     ZZ:   -11.3286
    XY:     2.8659     XZ:     0.0324     YZ:    -0.0881

  Traceless Quadrupole Moment: (Debye Ang)
    XX:    -0.3945     YY:     1.1732     ZZ:    -0.7787
    XY:     2.8659     XZ:     0.0324     YZ:    -0.0881

  Mulliken Charges: (a.u.)
   Center  Symbol    Alpha    Beta     Spin     Total
       1     O     4.09082  4.09082  0.00000 -0.18165
       2     O     4.09080  4.09080  0.00000 -0.18161
       3     H     0.40918  0.40918  0.00000  0.18165
       4     H     0.40920  0.40920  0.00000  0.18161

   Total alpha =  9.00000, Total beta =  9.00000, Total charge = -0.00000


*** Psi4 exiting successfully. Buy a developer a beer!
