
    -----------------------------------------------------------------------
          Psi4: An Open-Source Ab Initio Electronic Structure Package
                               Psi4 1.1 release

                         Git: Rev {HEAD} add49b9 


    R. M. Parrish, L. A. Burns, D. G. A. Smith, A. C. Simmonett,
    A. E. DePrince III, E. G. Hohenstein, U. Bozkaya, A. Yu. Sokolov,
    R. Di Remigio, R. M. Richard, J. F. Gonthier, A. M. James,
    H. R. McAlexander, A. Kumar, M. Saitow, X. Wang, B. P. Pritchard,
    P. Verma, H. F. Schaefer III, K. Patkowski, R. A. King, E. F. Valeev,
    F. A. Evangelista, J. M. Turney, T. D. Crawford, and C. D. Sherrill,
    J. Chem. Theory Comput. in press (2017).
    (doi: 10.1021/acs.jctc.7b00174)

    -----------------------------------------------------------------------


    Psi4 started on: Saturday, 12 August 2017 03:49AM

    Process ID:  11042
    PSIDATADIR: /home/raimis/opt/miniconda3/envs/htmd/share/psi4
    Memory:     500.0 MiB
    Threads:    1
    
  ==> Input File <==

--------------------------------------------------------------------------
set {
	reference rks
	basis 6-31G*
}


set_num_threads( 8 )
memory 2 gb

molecule MOL {
1 1

C	 1.441303	 -0.197070	 -1.470058
C	 2.053232	 0.203006	 -0.267334
C	 3.419847	 0.009227	 -0.092590
C	 4.180684	 -0.571627	 -1.111884
C	 3.576409	 -0.965829	 -2.309666
C	 2.208962	 -0.785779	 -2.492401
C	 -0.000000	 -0.000000	 -1.658508
H	 1.459072	 0.615166	 0.543428
H	 3.889781	 0.301232	 0.840914
H	 5.247411	 -0.717481	 -0.972409
H	 4.172451	 -1.403585	 -3.103794
H	 1.751737	 -1.054182	 -3.440632
N	 -0.712589	 -0.905950	 -2.322235
N	 -0.591729	 1.084291	 -1.165321
H	 -1.595403	 1.221766	 -1.187777
H	 -0.030562	 1.845762	 -0.806800
H	 -1.377189	 -1.485970	 -1.827091
H	 -0.673431	 -1.006470	 -3.329771

	symmetry c1
}
set optking { dynamic_level = 1 }
set optking {
	frozen_dihedral = ("
		1 7 13 17
	")
}

ee,wfn = optimize('b3lyp-d3', return_wfn=True)
oeprop( wfn, 'DIPOLE', 'QUADRUPOLE', 'MULLIKEN_CHARGES')
f=open( 'psi4out.xyz', 'w' )
f.write( "18  " )
f.write( str(ee) + "\n" )
f.write( MOL.save_string_xyz() )
f.close()
--------------------------------------------------------------------------
  Threads set to 8 by Python driver.

  Memory set to   1.863 GiB by Python driver.
gradient() will perform analytic gradient computation.

*** tstart() called on computer03
*** at Sat Aug 12 03:49:23 2017

   => Loading Basis Set <=

    Name: 6-31G*
    Role: ORBITAL
    Keyword: BASIS
    atoms 1-7         entry C          line   102 file /home/raimis/opt/miniconda3/envs/htmd/share/psi4/basis/6-31gs.gbs 
    atoms 8-12, 15-18 entry H          line    35 file /home/raimis/opt/miniconda3/envs/htmd/share/psi4/basis/6-31gs.gbs 
    atoms 13-14       entry N          line   119 file /home/raimis/opt/miniconda3/envs/htmd/share/psi4/basis/6-31gs.gbs 


         ---------------------------------------------------------
                                   SCF
            by Justin Turney, Rob Parrish, and Andy Simmonett
                              RKS Reference
                        8 Threads,   1907 MiB Core
         ---------------------------------------------------------

  ==> Geometry <==

    Molecular point group: c1
    Full point group: C1

    Geometry (in Angstrom), charge = 1, multiplicity = 1:

       Center              X                  Y                   Z               Mass       
    ------------   -----------------  -----------------  -----------------  -----------------
           C         -0.187791281564     0.025074371433    -0.024248367392    12.000000000000
           C          0.424137718436     0.425150371433     1.178475632608    12.000000000000
           C          1.790752718436     0.231371371433     1.353219632608    12.000000000000
           C          2.551589718436    -0.349482628567     0.333925632608    12.000000000000
           C          1.947314718436    -0.743684628567    -0.863856367392    12.000000000000
           C          0.579867718436    -0.563634628567    -1.046591367392    12.000000000000
           C         -1.629094281564     0.222144371433    -0.212698367392    12.000000000000
           H         -0.170022281564     0.837310371433     1.989237632608     1.007825032070
           H          2.260686718436     0.523376371433     2.286723632608     1.007825032070
           H          3.618316718436    -0.495336628567     0.473400632608     1.007825032070
           H          2.543356718436    -1.181440628567    -1.657984367392     1.007825032070
           H          0.122642718436    -0.832037628567    -1.994822367392     1.007825032070
           N         -2.341683281564    -0.683805628567    -0.876425367392    14.003074004780
           N         -2.220823281564     1.306435371433     0.280488632608    14.003074004780
           H         -3.224497281564     1.443910371433     0.258032632608     1.007825032070
           H         -1.659656281564     2.067906371433     0.639009632608     1.007825032070
           H         -3.006283281564    -1.263825628567    -0.381281367392     1.007825032070
           H         -2.302525281564    -0.784325628567    -1.883961367392     1.007825032070

  Running in c1 symmetry.

  Rotational constants: A =      0.12112  B =      0.03957  C =      0.03131 [cm^-1]
  Rotational constants: A =   3630.94500  B =   1186.41042  C =    938.79713 [MHz]
  Nuclear repulsion =  416.618092399556247

  Charge       = 1
  Multiplicity = 1
  Electrons    = 64
  Nalpha       = 32
  Nbeta        = 32

  ==> Algorithm <==

  SCF Algorithm Type is DF.
  DIIS enabled.
  MOM disabled.
  Fractional occupation disabled.
  Guess Type is SAD.
  Energy threshold   = 1.00e-08
  Density threshold  = 1.00e-08
  Integral threshold = 0.00e+00

  ==> Primary Basis <==

  Basis Set: 6-31G*
    Blend: 6-31G*
    Number of shells: 72
    Number of basis function: 153
    Number of Cartesian functions: 153
    Spherical Harmonics?: false
    Max angular momentum: 2

  ==> DFT Potential <==

   => B3LYP Composite Functional <= 

    B3LYP Hybrid-GGA Exchange-Correlation Functional (VWN1-RPA)

    P.J. Stephens et. al., J. Phys. Chem., 98, 11623-11627, 1994

    Points   =           5000
    Deriv    =              1
    GGA      =           TRUE
    Meta     =          FALSE

    X_LRC        =          FALSE
    X_Hybrid     =           TRUE
    X_Alpha      =   2.000000E-01
    X_Omega      =   0.000000E+00
    C_LRC        =          FALSE
    C_Hybrid     =          FALSE
    C_Alpha      =   0.000000E+00
    C_Omega      =   0.000000E+00

   => Exchange Functionals <=

    0.8000    B3_X
    0.2000      HF 

   => Correlation Functionals <=

    0.1900 VWN3RPA_C
    0.8100   LYP_C

   => Molecular Quadrature <=

    Radial Scheme    =       TREUTLER
    Pruning Scheme   =           FLAT
    Nuclear Scheme   =       TREUTLER

    BS radius alpha  =              1
    Pruning alpha    =              1
    Radial Points    =             75
    Spherical Points =            302
    Total Points     =         397040
    Total Blocks     =            341
    Max Points       =           4913
    Max Functions    =            149

   => -D3ZERO: Empirical Dispersion <=

    Grimme's -D3 (zero-damping) Dispersion Correction
    Grimme S.; Antony J.; Ehrlich S.; Krieg H. (2010), J. Chem. Phys., 132: 154104

        S6 =   1.000000E+00
        S8 =   1.703000E+00
       SR6 =   1.261000E+00
    ALPHA6 =   1.400000E+01

   => Loading Basis Set <=

    Name: (6-31G* AUX)
    Role: JKFIT
    Keyword: DF_BASIS_SCF
    atoms 1-7         entry C          line   120 file /home/raimis/opt/miniconda3/envs/htmd/share/psi4/basis/cc-pvdz-jkfit.gbs 
    atoms 8-12, 15-18 entry H          line    50 file /home/raimis/opt/miniconda3/envs/htmd/share/psi4/basis/cc-pvdz-jkfit.gbs 
    atoms 13-14       entry N          line   170 file /home/raimis/opt/miniconda3/envs/htmd/share/psi4/basis/cc-pvdz-jkfit.gbs 

  ==> Pre-Iterations <==

   -------------------------------------------------------
    Irrep   Nso     Nmo     Nalpha   Nbeta   Ndocc  Nsocc
   -------------------------------------------------------
     A        153     153       0       0       0       0
   -------------------------------------------------------
    Total     153     153      32      32      32       0
   -------------------------------------------------------

  ==> Integral Setup <==

  ==> DFJK: Density-Fitted J/K Matrices <==

    J tasked:                  Yes
    K tasked:                  Yes
    wK tasked:                  No
    OpenMP threads:              8
    Integrals threads:           8
    Memory (MB):              1430
    Algorithm:                Core
    Integral Cache:           NONE
    Schwarz Cutoff:          1E-12
    Fitting Condition:       1E-12

   => Auxiliary Basis Set <=

  Basis Set: (6-31G* AUX)
    Blend: CC-PVDZ-JKFIT
    Number of shells: 297
    Number of basis function: 954
    Number of Cartesian functions: 954
    Spherical Harmonics?: false
    Max angular momentum: 3

  Minimum eigenvalue in the overlap matrix is 4.8578205391E-04.
  Using Symmetric Orthogonalization.

  SCF Guess: Superposition of Atomic Densities via on-the-fly atomic UHF.

  ==> Iterations <==

                           Total Energy        Delta E     RMS |[F,P]|

   @DF-RKS iter   0:  -380.89096230635903   -3.80891e+02   7.16526e-02 
   @DF-RKS iter   1:  -381.11250924111738   -2.21547e-01   1.02166e-02 
   @DF-RKS iter   2:  -381.02998259546121    8.25266e-02   1.15391e-02 DIIS
   @DF-RKS iter   3:  -381.41860393461178   -3.88621e-01   1.70006e-03 DIIS
   @DF-RKS iter   4:  -381.42564444227810   -7.04051e-03   6.65176e-04 DIIS
   @DF-RKS iter   5:  -381.42676066532795   -1.11622e-03   2.44576e-04 DIIS
   @DF-RKS iter   6:  -381.42692632155234   -1.65656e-04   6.09575e-05 DIIS
   @DF-RKS iter   7:  -381.42694077390871   -1.44524e-05   1.36480e-05 DIIS
   @DF-RKS iter   8:  -381.42694183681772   -1.06291e-06   4.36206e-06 DIIS
   @DF-RKS iter   9:  -381.42694191965285   -8.28351e-08   2.39360e-06 DIIS
   @DF-RKS iter  10:  -381.42694193715391   -1.75011e-08   4.19376e-07 DIIS
   @DF-RKS iter  11:  -381.42694193787059   -7.16682e-10   9.65422e-08 DIIS
   @DF-RKS iter  12:  -381.42694193790328   -3.26850e-11   4.76823e-08 DIIS
   @DF-RKS iter  13:  -381.42694193790925   -5.96856e-12   2.09003e-08 DIIS
   @DF-RKS iter  14:  -381.42694193791061   -1.36424e-12   1.01620e-08 DIIS
   @DF-RKS iter  15:  -381.42694193791266   -2.04636e-12   3.03077e-09 DIIS

  ==> Post-Iterations <==

    Orbital Energies (a.u.)
    -----------------------

    Doubly Occupied:                                                      

       1A    -14.586198     2A    -14.518493     3A    -10.502807  
       4A    -10.372294     5A    -10.359108     6A    -10.357306  
       7A    -10.346459     8A    -10.342272     9A    -10.341732  
      10A     -1.179951    11A     -1.080740    12A     -1.015176  
      13A     -0.925917    14A     -0.903585    15A     -0.842527  
      16A     -0.778218    17A     -0.770300    18A     -0.742416  
      19A     -0.719736    20A     -0.705516    21A     -0.672988  
      22A     -0.629899    23A     -0.605898    24A     -0.587053  
      25A     -0.577771    26A     -0.558596    27A     -0.517379  
      28A     -0.508916    29A     -0.499589    30A     -0.443431  
      31A     -0.409979    32A     -0.405292  

    Virtual:                                                              

      33A     -0.253500    34A     -0.156376    35A     -0.144576  
      36A     -0.100762    37A     -0.076141    38A     -0.050026  
      39A     -0.036919    40A     -0.014681    41A      0.005743  
      42A      0.015834    43A      0.027129    44A      0.058230  
      45A      0.067806    46A      0.093281    47A      0.128935  
      48A      0.140672    49A      0.155987    50A      0.164382  
      51A      0.208436    52A      0.239743    53A      0.297455  
      54A      0.355200    55A      0.360306    56A      0.381652  
      57A      0.394805    58A      0.403237    59A      0.414116  
      60A      0.422456    61A      0.438477    62A      0.448332  
      63A      0.456387    64A      0.470110    65A      0.471993  
      66A      0.482151    67A      0.488601    68A      0.504411  
      69A      0.526028    70A      0.536919    71A      0.563574  
      72A      0.581750    73A      0.612249    74A      0.641298  
      75A      0.664814    76A      0.679893    77A      0.686878  
      78A      0.700463    79A      0.713693    80A      0.727647  
      81A      0.737222    82A      0.752952    83A      0.765647  
      84A      0.774098    85A      0.808223    86A      0.831957  
      87A      0.850236    88A      0.890898    89A      0.956099  
      90A      0.962908    91A      0.978978    92A      1.017253  
      93A      1.038649    94A      1.092564    95A      1.139789  
      96A      1.154366    97A      1.255179    98A      1.272875  
      99A      1.285196   100A      1.304101   101A      1.324195  
     102A      1.340578   103A      1.360321   104A      1.377660  
     105A      1.434005   106A      1.473789   107A      1.495904  
     108A      1.589674   109A      1.628491   110A      1.671374  
     111A      1.706634   112A      1.725039   113A      1.757354  
     114A      1.782320   115A      1.805214   116A      1.829500  
     117A      1.893914   118A      1.951835   119A      1.960933  
     120A      1.988798   121A      1.996979   122A      2.003105  
     123A      2.016401   124A      2.055586   125A      2.120684  
     126A      2.124809   127A      2.151089   128A      2.193928  
     129A      2.207786   130A      2.312853   131A      2.359444  
     132A      2.433730   133A      2.446678   134A      2.457310  
     135A      2.485793   136A      2.518072   137A      2.556608  
     138A      2.588643   139A      2.596848   140A      2.625395  
     141A      2.730801   142A      2.838781   143A      2.977927  
     144A      3.256826   145A      3.616076   146A      3.695005  
     147A      3.911138   148A      3.944614   149A      3.962743  
     150A      4.040643   151A      4.172242   152A      4.249634  
     153A      4.544164  

    Final Occupation by Irrep:
              A 
    DOCC [    32 ]

  Energy converged.

  @DF-RKS Final Energy:  -381.42694193791266

   => Energetics <=

    Nuclear Repulsion Energy =            416.6180923995562466
    One-Electron Energy =               -1328.5231135889923735
    Two-Electron Energy =                 574.9015285617007294
    DFT Exchange-Correlation Energy =     -44.4115140801772128
    Empirical Dispersion Energy =          -0.0119352300000000
    PCM Polarization Energy =               0.0000000000000000
    EFP Energy =                            0.0000000000000000
    Total Energy =                       -381.4269419379126589



Properties will be evaluated at   0.000000,   0.000000,   0.000000 Bohr

Properties computed using the SCF density matrix

  Nuclear Dipole Moment: (a.u.)
     X:    -1.6911      Y:     0.2940      Z:    -0.2529

  Electronic Dipole Moment: (a.u.)
     X:    -0.3633      Y:     0.3168      Z:     0.1088

  Dipole Moment: (a.u.)
     X:    -2.0543      Y:     0.6108      Z:    -0.1441     Total:     2.1481

  Dipole Moment: (Debye)
     X:    -5.2216      Y:     1.5524      Z:    -0.3663     Total:     5.4598


*** tstop() called on computer03 at Sat Aug 12 03:50:26 2017
Module time:
	user time   =     101.75 seconds =       1.70 minutes
	system time =       1.52 seconds =       0.03 minutes
	total time  =         63 seconds =       1.05 minutes
Total time:
	user time   =     101.75 seconds =       1.70 minutes
	system time =       1.52 seconds =       0.03 minutes
	total time  =         63 seconds =       1.05 minutes

*** tstart() called on computer03
*** at Sat Aug 12 03:50:26 2017


         ------------------------------------------------------------
                                   SCF GRAD                          
                          Rob Parrish, Justin Turney,                
                       Andy Simmonett, and Alex Sokolov              
         ------------------------------------------------------------

  ==> Geometry <==

    Molecular point group: c1
    Full point group: C1

    Geometry (in Angstrom), charge = 1, multiplicity = 1:

       Center              X                  Y                   Z               Mass       
    ------------   -----------------  -----------------  -----------------  -----------------
           C         -0.187791281564     0.025074371433    -0.024248367392    12.000000000000
           C          0.424137718436     0.425150371433     1.178475632608    12.000000000000
           C          1.790752718436     0.231371371433     1.353219632608    12.000000000000
           C          2.551589718436    -0.349482628567     0.333925632608    12.000000000000
           C          1.947314718436    -0.743684628567    -0.863856367392    12.000000000000
           C          0.579867718436    -0.563634628567    -1.046591367392    12.000000000000
           C         -1.629094281564     0.222144371433    -0.212698367392    12.000000000000
           H         -0.170022281564     0.837310371433     1.989237632608     1.007825032070
           H          2.260686718436     0.523376371433     2.286723632608     1.007825032070
           H          3.618316718436    -0.495336628567     0.473400632608     1.007825032070
           H          2.543356718436    -1.181440628567    -1.657984367392     1.007825032070
           H          0.122642718436    -0.832037628567    -1.994822367392     1.007825032070
           N         -2.341683281564    -0.683805628567    -0.876425367392    14.003074004780
           N         -2.220823281564     1.306435371433     0.280488632608    14.003074004780
           H         -3.224497281564     1.443910371433     0.258032632608     1.007825032070
           H         -1.659656281564     2.067906371433     0.639009632608     1.007825032070
           H         -3.006283281564    -1.263825628567    -0.381281367392     1.007825032070
           H         -2.302525281564    -0.784325628567    -1.883961367392     1.007825032070

  Nuclear repulsion =  416.618092399556247

  ==> Basis Set <==

  Basis Set: 6-31G*
    Blend: 6-31G*
    Number of shells: 72
    Number of basis function: 153
    Number of Cartesian functions: 153
    Spherical Harmonics?: false
    Max angular momentum: 2

  ==> DFJKGrad: Density-Fitted SCF Gradients <==

    Gradient:                    1
    J tasked:                  Yes
    K tasked:                  Yes
    wK tasked:                  No
    OpenMP threads:              8
    Integrals threads:           8
    Memory (MB):              1430
    Schwarz Cutoff:          0E+00
    Fitting Condition:       1E-12

   => Auxiliary Basis Set <=

  Basis Set: (6-31G* AUX)
    Blend: CC-PVDZ-JKFIT
    Number of shells: 297
    Number of basis function: 954
    Number of Cartesian functions: 954
    Spherical Harmonics?: false
    Max angular momentum: 3

  ==> DFT Potential <==

   => B3LYP Composite Functional <= 

    B3LYP Hybrid-GGA Exchange-Correlation Functional (VWN1-RPA)

    P.J. Stephens et. al., J. Phys. Chem., 98, 11623-11627, 1994

    Points   =           5000
    Deriv    =              1
    GGA      =           TRUE
    Meta     =          FALSE

    X_LRC        =          FALSE
    X_Hybrid     =           TRUE
    X_Alpha      =   2.000000E-01
    X_Omega      =   0.000000E+00
    C_LRC        =          FALSE
    C_Hybrid     =          FALSE
    C_Alpha      =   0.000000E+00
    C_Omega      =   0.000000E+00

   => Exchange Functionals <=

    0.8000    B3_X
    0.2000      HF 

   => Correlation Functionals <=

    0.1900 VWN3RPA_C
    0.8100   LYP_C

   => Molecular Quadrature <=

    Radial Scheme    =       TREUTLER
    Pruning Scheme   =           FLAT
    Nuclear Scheme   =       TREUTLER

    BS radius alpha  =              1
    Pruning alpha    =              1
    Radial Points    =             75
    Spherical Points =            302
    Total Points     =         397040
    Total Blocks     =            341
    Max Points       =           4913
    Max Functions    =            149


  -Total Gradient:
     Atom            X                  Y                   Z
    ------   -----------------  -----------------  -----------------
       1        0.004824362372    -0.010695019152     0.003778888677
       2       -0.003873726302    -0.003566732491    -0.000876118247
       3        0.000822467930     0.000538115077    -0.001430667697
       4       -0.000413199250    -0.000478656388    -0.000909424897
       5        0.002644432284    -0.000788736365     0.002250220475
       6       -0.003017141322     0.002845551736     0.000858182324
       7       -0.028691695533    -0.032986827075    -0.014577627049
       8       -0.000134005283    -0.000099531483    -0.000150182129
       9        0.000005554304     0.000403371068    -0.000199906850
      10        0.000008925806     0.000161978153    -0.000130575280
      11       -0.000015482847    -0.000092675591     0.000017544758
      12        0.000012611482     0.001959049196    -0.001579547503
      13        0.034951795851     0.029002741607     0.018520381543
      14       -0.008078132529     0.010729845538    -0.002066355159
      15        0.002242332460     0.002150178554     0.004161834043
      16       -0.000775906570    -0.000351446286    -0.007530927363
      17        0.005842916764    -0.003226172398     0.003210213897
      18       -0.006357548525     0.004494074881    -0.003347003458


*** tstop() called on computer03 at Sat Aug 12 03:50:36 2017
Module time:
	user time   =      23.04 seconds =       0.38 minutes
	system time =       0.34 seconds =       0.01 minutes
	total time  =         10 seconds =       0.17 minutes
Total time:
	user time   =     124.86 seconds =       2.08 minutes
	system time =       1.87 seconds =       0.03 minutes
	total time  =         73 seconds =       1.22 minutes

			-----------------------------------------
			 OPTKING 2.0: for geometry optimizations 
			  - R.A. King,  Bethel University        
			-----------------------------------------
	At level 1: Red. Int., RFO, no backsteps, dynamic trust

	Internal coordinates to be generated automatically.
	Detected frag 1 with atoms:  1 2 3 4 5 6 7 8 9 10 11 12 13 14 15 16 17 18
	---Fragment 1 Bond Connectivity---
	 1 : 2 6 7
	 2 : 1 3 8
	 3 : 2 4 9
	 4 : 3 5 10
	 5 : 4 6 11
	 6 : 1 5 12
	 7 : 1 13 14
	 8 : 2
	 9 : 3
	 10 : 4
	 11 : 5
	 12 : 6
	 13 : 7 17 18
	 14 : 7 15 16
	 15 : 14
	 16 : 14
	 17 : 13
	 18 : 13

	Assuming in current code that numbering for constraints corresponds to unified fragment.
	Frozen dihedral atom list: 
	     1     7    13    17
	---Fragment 1 Geometry and Gradient---
	 C          -0.3548740923        0.0473836950       -0.0458227735
	 C           0.8015041305        0.8034177673        2.2269961999
	 C           3.3840322096        0.4372285270        2.5572145033
	 C           4.8218057713       -0.6604264562        0.6310279944
	 C           3.6798915124       -1.4053602772       -1.6324519525
	 C           1.0957911811       -1.0651150870       -1.9777710574
	 C          -3.0785420368        0.4197920240       -0.4019416633
	 H          -0.3212955486        1.5822872902        3.7591143389
	 H           4.2720787701        0.9890380064        4.3212814072
	 H           6.8376276599       -0.9360505716        0.8945975468
	 H           4.8062476561       -2.2325992303       -3.1331363870
	 H           0.2317611500       -1.5723232502       -3.7696679581
	 N          -4.4251400921       -1.2922053661       -1.6562039203
	 N          -4.1967477917        2.4688050623        0.5300466990
	 H          -6.0934167784        2.7285951624        0.4876110090
	 H          -3.1362958469        3.9077767105        1.2075532019
	 H          -5.6810520800       -2.3882843177       -0.7205173639
	 H          -4.3511421962       -1.4821606370       -3.5601710293
	             0.0048243624       -0.0106950192        0.0037788887
	            -0.0038737263       -0.0035667325       -0.0008761182
	             0.0008224679        0.0005381151       -0.0014306677
	            -0.0004131993       -0.0004786564       -0.0009094249
	             0.0026444323       -0.0007887364        0.0022502205
	            -0.0030171413        0.0028455517        0.0008581823
	            -0.0286916955       -0.0329868271       -0.0145776270
	            -0.0001340053       -0.0000995315       -0.0001501821
	             0.0000055543        0.0004033711       -0.0001999069
	             0.0000089258        0.0001619782       -0.0001305753
	            -0.0000154828       -0.0000926756        0.0000175448
	             0.0000126115        0.0019590492       -0.0015795475
	             0.0349517959        0.0290027416        0.0185203815
	            -0.0080781325        0.0107298455       -0.0020663552
	             0.0022423325        0.0021501786        0.0041618340
	            -0.0007759066       -0.0003514463       -0.0075309274
	             0.0058429168       -0.0032261724        0.0032102139
	            -0.0063575485        0.0044940749       -0.0033470035

	Previous optimization step data not found.  Starting new optimization.

	---Fragment 1 Intrafragment Coordinates---
	 - Coordinate -           - BOHR/RAD -       - ANG/DEG -
	 R(1,2)           =         2.659794	       1.407502
	 R(1,6)           =         2.659795	       1.407503
	 R(1,7)           =         2.771980	       1.466869
	 R(2,3)           =         2.629180	       1.391302
	 R(2,8)           =         2.052974	       1.086387
	 R(3,4)           =         2.642392	       1.398293
	 R(3,9)           =         2.050622	       1.085143
	 R(4,5)           =         2.642392	       1.398294
	 R(4,10)          =         2.051579	       1.085649
	 R(5,6)           =         2.629180	       1.391302
	 R(5,11)          =         2.050623	       1.085143
	 R(6,12)          =         2.052974	       1.086387
	 R(7,13)          =         2.513451	       1.330061
	 R(7,14)          =         2.513452	       1.330062
	 R(13,17)         =         1.911600	       1.011575
	 R(13,18)         =         1.914850	       1.013295
	 R(14,15)         =         1.914849	       1.013294
	 R(14,16)         =         1.911600	       1.011575
	 B(1,2,3)         =         2.088381	     119.655421
	 B(1,2,8)         =         2.103396	     120.515719
	 B(1,6,5)         =         2.088380	     119.655367
	 B(1,6,12)        =         2.103397	     120.515764
	 B(1,7,13)        =         2.093264	     119.935184
	 B(1,7,14)        =         2.093264	     119.935185
	 B(2,1,6)         =         2.097219	     120.161779
	 B(2,1,7)         =         2.092983	     119.919113
	 B(2,3,4)         =         2.095279	     120.050634
	 B(2,3,9)         =         2.089719	     119.732081
	 B(3,2,8)         =         2.090148	     119.756652
	 B(3,4,5)         =         2.101792	     120.423827
	 B(3,4,10)        =         2.090696	     119.788047
	 B(4,3,9)         =         2.098136	     120.214326
	 B(4,5,6)         =         2.095280	     120.050692
	 B(4,5,11)        =         2.098135	     120.214267
	 B(5,4,10)        =         2.090697	     119.788126
	 B(5,6,12)        =         2.090148	     119.756655
	 B(6,1,7)         =         2.092983	     119.919108
	 B(6,5,11)        =         2.089719	     119.732083
	 B(7,13,17)       =         2.092411	     119.886337
	 B(7,13,18)       =         2.144861	     122.891462
	 B(7,14,15)       =         2.144860	     122.891444
	 B(7,14,16)       =         2.092411	     119.886321
	 B(13,7,14)       =         2.096658	     120.129631
	 B(15,14,16)      =         2.043400	     117.078179
	 B(17,13,18)      =         2.043399	     117.078143
	 D(1,2,3,4)       =         0.007799	       0.446851
	 D(1,2,3,9)       =        -3.122898	    -178.928848
	 D(1,6,5,4)       =         0.007800	       0.446897
	 D(1,6,5,11)      =        -3.122896	    -178.928767
	*D(1,7,13,17)     =         1.919862	     110.000017
	 D(1,7,13,18)     =        -1.300147	     -74.492919
	 D(1,7,14,15)     =        -3.032165	    -173.730250
	 D(1,7,14,16)     =         0.187844	      10.762645
	 D(2,1,6,5)       =        -0.003908	      -0.223890
	 D(2,1,6,12)      =        -3.091438	    -177.126356
	 D(2,1,7,13)      =        -2.505167	    -143.535480
	 D(2,1,7,14)      =         0.636427	      36.464577
	 D(2,3,4,5)       =        -0.003943	      -0.225916
	 D(2,3,4,10)      =         3.137650	     179.774115
	 D(3,2,1,6)       =        -0.003905	      -0.223768
	 D(3,2,1,7)       =         3.137686	     179.776172
	 D(3,4,5,6)       =        -0.003942	      -0.225885
	 D(3,4,5,11)      =         3.126700	     179.146741
	 D(4,3,2,8)       =         3.095746	     177.373187
	 D(4,5,6,12)      =         3.095745	     177.373118
	 D(5,4,3,9)       =         3.126701	     179.146746
	 D(5,6,1,7)       =         3.137686	     179.776170
	 D(6,1,2,8)       =        -3.091438	    -177.126350
	 D(6,1,7,13)      =         0.636425	      36.464460
	 D(6,1,7,14)      =        -2.505167	    -143.535483
	 D(6,5,4,10)      =         3.137650	     179.774085
	 D(7,1,2,8)       =         0.050154	       2.873590
	 D(7,1,6,12)      =         0.050156	       2.873705
	 D(8,2,3,9)       =        -0.034950	      -2.002512
	 D(9,3,4,10)      =        -0.014892	      -0.853224
	 D(10,4,5,11)     =        -0.014893	      -0.853290
	 D(11,5,6,12)     =        -0.034951	      -2.002545
	 D(13,7,14,15)    =         0.109429	       6.269807
	 D(13,7,14,16)    =        -2.953748	    -169.237299
	 D(14,7,13,17)    =        -1.221731	     -70.000040
	 D(14,7,13,18)    =         1.841445	     105.507024

	Current energy   :      -381.4269419379

	Generating empirical Hessian (Schlegel '84) for each fragment.
	Taking RFO optimization step.
	Going to follow RFO solution 1.
	Using RFO vector 1.

	Determining step-restricting scale parameter for RS-RFO.
	Maximum step size allowed    0.50000

	 Iter      |step|        alpha        rfo_root  
	------------------------------------------------
	    0     0.53513       1.00000           1
	    1     0.50315       1.18484           1
	    2     0.50003       1.20482           1
	    3     0.50000       1.20501           1
	------------------------------------------------
	Norm of target step-size    0.50000
	Projected energy change by RFO approximation:        -0.0042607207

	Back-transformation to cartesian coordinates...
	Could not converge backtransformation.
	Using first guess instead.

	Back-transformation to cartesian coordinates to adjust frozen coordinates...
	Successfully converged to displaced geometry.

	--- Internal Coordinate Step in ANG or DEG, aJ/ANG or AJ/DEG ---
	 ---------------------------------------------------------------------------
	   Coordinate                Previous        Force       Change         New 
	   ----------                --------       ------       ------       ------
	    1 R(1,2)          =      1.407502     0.031343     0.005741     1.413244
	    2 R(1,6)          =      1.407503     0.016736     0.004781     1.412284
	    3 R(1,7)          =      1.466869    -0.019593    -0.003281     1.463588
	    4 R(2,3)          =      1.391302    -0.006860    -0.000515     1.390787
	    5 R(2,8)          =      1.086387     0.000632     0.001461     1.087848
	    6 R(3,4)          =      1.398293     0.002247     0.001733     1.400027
	    7 R(3,9)          =      1.085143     0.000504     0.000585     1.085727
	    8 R(4,5)          =      1.398294     0.014670     0.002891     1.401185
	    9 R(4,10)         =      1.085649     0.000245     0.000227     1.085875
	   10 R(5,6)          =      1.391302    -0.017697    -0.002352     1.388950
	   11 R(5,11)         =      1.085143    -0.000134     0.001815     1.086958
	   12 R(6,12)         =      1.086387    -0.007328     0.001777     1.088164
	   13 R(7,13)         =      1.330061     0.397464     0.043890     1.373951
	   14 R(7,14)         =      1.330062    -0.091784    -0.000660     1.329401
	   15 R(13,17)        =      1.011575     0.003439     0.001598     1.013173
	   16 R(13,18)        =      1.013295    -0.021716     0.000044     1.013339
	   17 R(14,15)        =      1.013294     0.016658     0.002617     1.015911
	   18 R(14,16)        =      1.011575     0.027710     0.025848     1.037423
	   19 B(1,2,3)        =    119.655421     0.000035     0.047835   119.703256
	   20 B(1,2,8)        =    120.515719    -0.000003     0.045880   120.561599
	   21 B(1,6,5)        =    119.655367     0.000018     0.012710   119.668077
	   22 B(1,6,12)       =    120.515764    -0.000002     0.158956   120.674721
	   23 B(1,7,13)       =    119.935184     0.000997     2.737162   122.672346
	   24 B(1,7,14)       =    119.935185    -0.000518    -1.726334   118.208851
	   25 B(2,1,6)        =    120.161779    -0.000086    -0.143171   120.018608
	   26 B(2,1,7)        =    119.919113     0.000073     0.165520   120.084633
	   27 B(2,3,4)        =    120.050634    -0.000036    -0.098731   119.951904
	   28 B(2,3,9)        =    119.732081     0.000022     0.018639   119.750720
	   29 B(3,2,8)        =    119.756652    -0.000034    -0.135880   119.620773
	   30 B(3,4,5)        =    120.423827     0.000039     0.137604   120.561431
	   31 B(3,4,10)       =    119.788047    -0.000024    -0.047548   119.740498
	   32 B(4,3,9)        =    120.214326     0.000014     0.082009   120.296335
	   33 B(4,5,6)        =    120.050692     0.000029     0.017962   120.068654
	   34 B(4,5,11)       =    120.214267    -0.000015     0.043551   120.257818
	   35 B(5,4,10)       =    119.788126    -0.000015    -0.092677   119.695449
	   36 B(5,6,12)       =    119.756655    -0.000013    -0.123761   119.632894
	   37 B(6,1,7)        =    119.919108     0.000012    -0.029405   119.889703
	   38 B(6,5,11)       =    119.732083    -0.000014    -0.060519   119.671564
	   39 B(7,13,17)      =    119.886337     0.000302     1.448709   121.335046
	   40 B(7,13,18)      =    122.891462    -0.000190    -1.091522   121.799940
	   41 B(7,14,15)      =    122.891444    -0.000447    -2.108476   120.782968
	   42 B(7,14,16)      =    119.886321     0.000320     2.076794   121.963115
	   43 B(13,7,14)      =    120.129631    -0.000478    -1.226984   118.902647
	   44 B(15,14,16)     =    117.078179     0.000143     0.171724   117.249903
	   45 B(17,13,18)     =    117.078143    -0.000089    -0.265195   116.812948
	   46 D(1,2,3,4)      =      0.446851     0.000011     1.061614     1.508465
	   47 D(1,2,3,9)      =   -178.928848     0.000009     0.807429  -178.121420
	   48 D(1,6,5,4)      =      0.446897     0.000012     1.122579     1.569476
	   49 D(1,6,5,11)     =   -178.928767    -0.000000    -0.010244  -178.939010
	   50 *D(1,7,13,17)   =    110.000017    -0.000000    -0.000000   110.000017
	   51 D(1,7,13,18)    =    -74.492919     0.000085     7.201219   -67.291700
	   52 D(1,7,14,15)    =   -173.730250    -0.000009    -0.444516  -174.174766
	   53 D(1,7,14,16)    =     10.762645    -0.000068    -5.686417     5.076228
	   54 D(2,1,6,5)      =     -0.223890    -0.000008    -0.831936    -1.055826
	   55 D(2,1,6,12)     =   -177.126356    -0.000022    -2.129544  -179.255899
	   56 D(2,1,7,13)     =   -143.535480    -0.000031    -5.045829  -148.581309
	   57 D(2,1,7,14)     =     36.464577    -0.000087   -10.451767    26.012810
	   58 D(2,3,4,5)      =     -0.225916    -0.000008    -0.778746    -1.004662
	   59 D(2,3,4,10)     =    179.774115    -0.000002    -0.187958   179.586157
	   60 D(3,2,1,6)      =     -0.223768    -0.000003    -0.264854    -0.488622
	   61 D(3,2,1,7)      =    179.776172    -0.000013    -1.232088   178.544083
	   62 D(3,4,5,6)      =     -0.225885    -0.000004    -0.327977    -0.553862
	   63 D(3,4,5,11)     =    179.146741     0.000008     0.810893   179.957633
	   64 D(4,3,2,8)      =    177.373187     0.000003     0.269700   177.642887
	   65 D(4,5,6,12)     =    177.373118     0.000025     2.415350   179.788469
	   66 D(5,4,3,9)      =    179.146746    -0.000005    -0.523566   178.623180
	   67 D(5,6,1,7)      =    179.776170     0.000001     0.133401   179.909571
	   68 D(6,1,2,8)      =   -177.126350     0.000005     0.540322  -176.586028
	   69 D(6,1,7,13)     =     36.464460    -0.000040    -6.011810    30.452650
	   70 D(6,1,7,14)     =   -143.535483    -0.000096   -11.417748  -154.953232
	   71 D(6,5,4,10)     =    179.774085    -0.000010    -0.918500   178.855585
	   72 D(7,1,2,8)      =      2.873590    -0.000004    -0.426912     2.446677
	   73 D(7,1,6,12)     =      2.873705    -0.000013    -1.164206     1.709498
	   74 D(8,2,3,9)      =     -2.002512     0.000000     0.015515    -1.986998
	   75 D(9,3,4,10)     =     -0.853224     0.000001     0.067223    -0.786001
	   76 D(10,4,5,11)    =     -0.853290     0.000002     0.220369    -0.632921
	   77 D(11,5,6,12)    =     -2.002545     0.000013     1.282527    -0.720018
	   78 D(13,7,14,15)   =      6.269807    -0.000065    -5.641952     0.627855
	   79 D(13,7,14,16)   =   -169.237299    -0.000124   -10.883853  -180.121152
	   80 D(14,7,13,17)   =    -70.000040     0.000056     5.441788   -64.558252
	   81 D(14,7,13,18)   =    105.507024     0.000141    12.643007   118.150031
	 ---------------------------------------------------------------------------
	Successfully symmetrized geometry.

  ==> Convergence Check <==

  Measures of convergence in internal coordinates in au.
  Criteria marked as inactive (o), active & met (*), and active & unmet ( ).
  --------------------------------------------------------------------------------------------- ~
   Step     Total Energy     Delta E     MAX Force     RMS Force      MAX Disp      RMS Disp    ~
  --------------------------------------------------------------------------------------------- ~
    Convergence Criteria    1.00e-06 *    3.00e-04 *             o    1.20e-03 *             o  ~
  --------------------------------------------------------------------------------------------- ~
      1    -381.42694194   -3.81e+02      4.82e-02      6.18e-03 o    2.21e-01      5.50e-02 o  ~
  ---------------------------------------------------------------------------------------------

	Writing optimization data to binary file.
	Structure for next step:
	Cartesian Geometry (in Angstrom)
	    C    -0.1792716555   0.0529408153  -0.0550828458
	    C     0.4383481716   0.5099262754   1.1310737290
	    C     1.7985112129   0.2953988060   1.3265823009
	    C     2.5549626355  -0.3426357076   0.3362450112
	    C     1.9496265724  -0.7881001958  -0.8463148865
	    C     0.5859815797  -0.6091201510  -1.0402776057
	    C    -1.6161881780   0.2459291172  -0.2553704348
	    H    -0.1520064349   0.9714019656   1.9197027910
	    H     2.2675921889   0.6189042620   2.2507635568
	    H     3.6180209177  -0.5023462174   0.4896233606
	    H     2.5417711666  -1.2822623698  -1.6122438395
	    H     0.1238257582  -0.9547117668  -1.9628167553
	    N    -2.3894485350  -0.6329758361  -0.9746313323
	    N    -2.2082052966   1.2564354785   0.3736769219
	    H    -3.2164099351   1.3747260878   0.3335983817
	    H    -1.6707648795   1.9465881522   0.9314352569
	    H    -3.0756201468  -1.2243482646  -0.5207965587
	    H    -2.2744362103  -0.7506447651  -1.9745226644
			--------------------------
			 OPTKING Finished Execution 
			--------------------------

    Structure for next step:
    Molecular point group: c1
    Full point group: C1

    Geometry (in Angstrom), charge = 1, multiplicity = 1:

    C           -0.180510103274     0.042193318847    -0.043525374878
    C            0.437109723830     0.499178778911     1.142631199863
    C            1.797272765146     0.284651309517     1.338139771775
    C            2.553724187782    -0.353383204068     0.347802482104
    C            1.948388124589    -0.798847692257    -0.834757415626
    C            0.584743131985    -0.619867647484    -1.028720134859
    C           -1.617426625782     0.235181620775    -0.243812963971
    H           -0.153244882633     0.960654469161     1.931260261848
    H            2.266353741124     0.608156765542     2.262321027663
    H            3.616782469907    -0.513093713911     0.501180831470
    H            2.540532718867    -1.293009866279    -1.600686368590
    H            0.122587310414    -0.965459263302    -1.951259284381
    N           -2.390686982725    -0.643723332567    -0.963073861386
    N           -2.209443744391     1.245687982041     0.385234392800
    H           -3.217648382826     1.363978591316     0.345155852528
    H           -1.672003327285     1.935840655706     0.942992727731
    H           -3.076858594529    -1.235095761122    -0.509239087860
    H           -2.275674658106    -0.761392261554    -1.962965193485

gradient() will perform analytic gradient computation.

*** tstart() called on computer03
*** at Sat Aug 12 03:50:37 2017

   => Loading Basis Set <=

    Name: 6-31G*
    Role: ORBITAL
    Keyword: BASIS
    atoms 1-7         entry C          line   102 file /home/raimis/opt/miniconda3/envs/htmd/share/psi4/basis/6-31gs.gbs 
    atoms 8-12, 15-18 entry H          line    35 file /home/raimis/opt/miniconda3/envs/htmd/share/psi4/basis/6-31gs.gbs 
    atoms 13-14       entry N          line   119 file /home/raimis/opt/miniconda3/envs/htmd/share/psi4/basis/6-31gs.gbs 


         ---------------------------------------------------------
                                   SCF
            by Justin Turney, Rob Parrish, and Andy Simmonett
                              RKS Reference
                        8 Threads,   1907 MiB Core
         ---------------------------------------------------------

  ==> Geometry <==

    Molecular point group: c1
    Full point group: C1

    Geometry (in Angstrom), charge = 1, multiplicity = 1:

       Center              X                  Y                   Z               Mass       
    ------------   -----------------  -----------------  -----------------  -----------------
           C         -0.180510103274     0.042193318847    -0.043525374878    12.000000000000
           C          0.437109723830     0.499178778911     1.142631199863    12.000000000000
           C          1.797272765146     0.284651309517     1.338139771775    12.000000000000
           C          2.553724187782    -0.353383204068     0.347802482104    12.000000000000
           C          1.948388124589    -0.798847692257    -0.834757415626    12.000000000000
           C          0.584743131985    -0.619867647484    -1.028720134859    12.000000000000
           C         -1.617426625782     0.235181620775    -0.243812963971    12.000000000000
           H         -0.153244882633     0.960654469161     1.931260261848     1.007825032070
           H          2.266353741124     0.608156765542     2.262321027663     1.007825032070
           H          3.616782469907    -0.513093713911     0.501180831470     1.007825032070
           H          2.540532718867    -1.293009866279    -1.600686368590     1.007825032070
           H          0.122587310414    -0.965459263302    -1.951259284381     1.007825032070
           N         -2.390686982725    -0.643723332567    -0.963073861386    14.003074004780
           N         -2.209443744391     1.245687982041     0.385234392800    14.003074004780
           H         -3.217648382826     1.363978591316     0.345155852528     1.007825032070
           H         -1.672003327285     1.935840655706     0.942992727731     1.007825032070
           H         -3.076858594529    -1.235095761122    -0.509239087860     1.007825032070
           H         -2.275674658106    -0.761392261554    -1.962965193485     1.007825032070

  Running in c1 symmetry.

  Rotational constants: A =      0.11986  B =      0.03973  C =      0.03079 [cm^-1]
  Rotational constants: A =   3593.24885  B =   1191.02518  C =    923.20386 [MHz]
  Nuclear repulsion =  415.142678089636547

  Charge       = 1
  Multiplicity = 1
  Electrons    = 64
  Nalpha       = 32
  Nbeta        = 32

  ==> Algorithm <==

  SCF Algorithm Type is DF.
  DIIS enabled.
  MOM disabled.
  Fractional occupation disabled.
  Guess Type is READ.
  Energy threshold   = 1.00e-08
  Density threshold  = 1.00e-08
  Integral threshold = 0.00e+00

  ==> Primary Basis <==

  Basis Set: 6-31G*
    Blend: 6-31G*
    Number of shells: 72
    Number of basis function: 153
    Number of Cartesian functions: 153
    Spherical Harmonics?: false
    Max angular momentum: 2

  ==> DFT Potential <==

   => B3LYP Composite Functional <= 

    B3LYP Hybrid-GGA Exchange-Correlation Functional (VWN1-RPA)

    P.J. Stephens et. al., J. Phys. Chem., 98, 11623-11627, 1994

    Points   =           5000
    Deriv    =              1
    GGA      =           TRUE
    Meta     =          FALSE

    X_LRC        =          FALSE
    X_Hybrid     =           TRUE
    X_Alpha      =   2.000000E-01
    X_Omega      =   0.000000E+00
    C_LRC        =          FALSE
    C_Hybrid     =          FALSE
    C_Alpha      =   0.000000E+00
    C_Omega      =   0.000000E+00

   => Exchange Functionals <=

    0.8000    B3_X
    0.2000      HF 

   => Correlation Functionals <=

    0.1900 VWN3RPA_C
    0.8100   LYP_C

   => Molecular Quadrature <=

    Radial Scheme    =       TREUTLER
    Pruning Scheme   =           FLAT
    Nuclear Scheme   =       TREUTLER

    BS radius alpha  =              1
    Pruning alpha    =              1
    Radial Points    =             75
    Spherical Points =            302
    Total Points     =         396923
    Total Blocks     =            343
    Max Points       =           4915
    Max Functions    =            149

   => -D3ZERO: Empirical Dispersion <=

    Grimme's -D3 (zero-damping) Dispersion Correction
    Grimme S.; Antony J.; Ehrlich S.; Krieg H. (2010), J. Chem. Phys., 132: 154104

        S6 =   1.000000E+00
        S8 =   1.703000E+00
       SR6 =   1.261000E+00
    ALPHA6 =   1.400000E+01

   => Loading Basis Set <=

    Name: (6-31G* AUX)
    Role: JKFIT
    Keyword: DF_BASIS_SCF
    atoms 1-7         entry C          line   120 file /home/raimis/opt/miniconda3/envs/htmd/share/psi4/basis/cc-pvdz-jkfit.gbs 
    atoms 8-12, 15-18 entry H          line    50 file /home/raimis/opt/miniconda3/envs/htmd/share/psi4/basis/cc-pvdz-jkfit.gbs 
    atoms 13-14       entry N          line   170 file /home/raimis/opt/miniconda3/envs/htmd/share/psi4/basis/cc-pvdz-jkfit.gbs 

  Reading orbitals from file 180, no projection.

  ==> Pre-Iterations <==

   -------------------------------------------------------
    Irrep   Nso     Nmo     Nalpha   Nbeta   Ndocc  Nsocc
   -------------------------------------------------------
     A        153     153       0       0       0       0
   -------------------------------------------------------
    Total     153     153      32      32      32       0
   -------------------------------------------------------

  ==> Integral Setup <==

  ==> DFJK: Density-Fitted J/K Matrices <==

    J tasked:                  Yes
    K tasked:                  Yes
    wK tasked:                  No
    OpenMP threads:              8
    Integrals threads:           8
    Memory (MB):              1430
    Algorithm:                Core
    Integral Cache:           NONE
    Schwarz Cutoff:          1E-12
    Fitting Condition:       1E-12

   => Auxiliary Basis Set <=

  Basis Set: (6-31G* AUX)
    Blend: CC-PVDZ-JKFIT
    Number of shells: 297
    Number of basis function: 954
    Number of Cartesian functions: 954
    Spherical Harmonics?: false
    Max angular momentum: 3

  Minimum eigenvalue in the overlap matrix is 4.9124230231E-04.
  Using Symmetric Orthogonalization.

  SCF Guess: Orbitals guess was supplied from a previous computation.

  ==> Iterations <==

                           Total Energy        Delta E     RMS |[F,P]|

   @DF-RKS iter   0:  -381.36484358271980   -3.81365e+02   3.51779e-03 
   @DF-RKS iter   1:  -381.43368076748135   -6.88372e-02   5.78363e-04 
   @DF-RKS iter   2:  -381.43243490785483    1.24586e-03   8.94645e-04 DIIS
   @DF-RKS iter   3:  -381.43494924402876   -2.51434e-03   1.42931e-04 DIIS
   @DF-RKS iter   4:  -381.43500135686708   -5.21128e-05   5.97726e-05 DIIS
   @DF-RKS iter   5:  -381.43501275562284   -1.13988e-05   2.21957e-05 DIIS
   @DF-RKS iter   6:  -381.43501432672991   -1.57111e-06   7.53183e-06 DIIS
   @DF-RKS iter   7:  -381.43501449502020   -1.68290e-07   2.61334e-06 DIIS
   @DF-RKS iter   8:  -381.43501451626349   -2.12433e-08   7.31361e-07 DIIS
   @DF-RKS iter   9:  -381.43501451778354   -1.52005e-09   2.53096e-07 DIIS
   @DF-RKS iter  10:  -381.43501451797465   -1.91108e-10   1.18399e-07 DIIS
   @DF-RKS iter  11:  -381.43501451802553   -5.08749e-11   3.95544e-08 DIIS
   @DF-RKS iter  12:  -381.43501451803235   -6.82121e-12   8.73640e-09 DIIS

  ==> Post-Iterations <==

    Orbital Energies (a.u.)
    -----------------------

    Doubly Occupied:                                                      

       1A    -14.585039     2A    -14.526405     3A    -10.503397  
       4A    -10.375494     5A    -10.363158     6A    -10.359387  
       7A    -10.349263     8A    -10.345218     9A    -10.343361  
      10A     -1.172276    11A     -1.071112    12A     -1.016018  
      13A     -0.926896    14A     -0.905909    15A     -0.841857  
      16A     -0.777954    17A     -0.769643    18A     -0.736547  
      19A     -0.717848    20A     -0.698244    21A     -0.668877  
      22A     -0.632458    23A     -0.606118    24A     -0.586860  
      25A     -0.580138    26A     -0.564500    27A     -0.516477  
      28A     -0.511030    29A     -0.501455    30A     -0.446770  
      31A     -0.411271    32A     -0.408164  

    Virtual:                                                              

      33A     -0.250602    34A     -0.157743    35A     -0.141658  
      36A     -0.106785    37A     -0.077726    38A     -0.058296  
      39A     -0.036885    40A     -0.016123    41A      0.006102  
      42A      0.018883    43A      0.025869    44A      0.059464  
      45A      0.067081    46A      0.086625    47A      0.122076  
      48A      0.125322    49A      0.153005    50A      0.171786  
      51A      0.210220    52A      0.230307    53A      0.296488  
      54A      0.350375    55A      0.365441    56A      0.378741  
      57A      0.391063    58A      0.400993    59A      0.414107  
      60A      0.419580    61A      0.434668    62A      0.445892  
      63A      0.455342    64A      0.468267    65A      0.470516  
      66A      0.479772    67A      0.482771    68A      0.496328  
      69A      0.525104    70A      0.549216    71A      0.561711  
      72A      0.582021    73A      0.613503    74A      0.637051  
      75A      0.666725    76A      0.679993    77A      0.693326  
      78A      0.699102    79A      0.714153    80A      0.727441  
      81A      0.738636    82A      0.754822    83A      0.772246  
      84A      0.788142    85A      0.815310    86A      0.833727  
      87A      0.851846    88A      0.900838    89A      0.953966  
      90A      0.966122    91A      0.996248    92A      1.022247  
      93A      1.053535    94A      1.088741    95A      1.129014  
      96A      1.145667    97A      1.240278    98A      1.270435  
      99A      1.283660   100A      1.300278   101A      1.323122  
     102A      1.336335   103A      1.355517   104A      1.371015  
     105A      1.415711   106A      1.451747   107A      1.524667  
     108A      1.575191   109A      1.616909   110A      1.647342  
     111A      1.710380   112A      1.724754   113A      1.744573  
     114A      1.781377   115A      1.796945   116A      1.820991  
     117A      1.890092   118A      1.939921   119A      1.960405  
     120A      1.974736   121A      1.995072   122A      1.999895  
     123A      2.017380   124A      2.034443   125A      2.115136  
     126A      2.119178   127A      2.148633   128A      2.180894  
     129A      2.195126   130A      2.300848   131A      2.336774  
     132A      2.416569   133A      2.439701   134A      2.455632  
     135A      2.477161   136A      2.505834   137A      2.537038  
     138A      2.587473   139A      2.593450   140A      2.618429  
     141A      2.729148   142A      2.812291   143A      2.981108  
     144A      3.247885   145A      3.612494   146A      3.672286  
     147A      3.904595   148A      3.940731   149A      3.960390  
     150A      4.035960   151A      4.167166   152A      4.248787  
     153A      4.540632  

    Final Occupation by Irrep:
              A 
    DOCC [    32 ]

  Energy converged.

  @DF-RKS Final Energy:  -381.43501451803235

   => Energetics <=

    Nuclear Repulsion Energy =            415.1426780896365472
    One-Electron Energy =               -1325.5905493548555114
    Two-Electron Energy =                 573.3996529824944446
    DFT Exchange-Correlation Energy =     -44.3750613753078156
    Empirical Dispersion Energy =          -0.0117348600000000
    PCM Polarization Energy =               0.0000000000000000
    EFP Energy =                            0.0000000000000000
    Total Energy =                       -381.4350145180323466



Properties will be evaluated at   0.000000,   0.000000,   0.000000 Bohr

Properties computed using the SCF density matrix

  Nuclear Dipole Moment: (a.u.)
     X:    -1.7202      Y:     0.0925      Z:    -0.0370

  Electronic Dipole Moment: (a.u.)
     X:    -0.2449      Y:     0.3743      Z:    -0.0000

  Dipole Moment: (a.u.)
     X:    -1.9651      Y:     0.4669      Z:    -0.0370     Total:     2.0201

  Dipole Moment: (Debye)
     X:    -4.9948      Y:     1.1867      Z:    -0.0940     Total:     5.1346


*** tstop() called on computer03 at Sat Aug 12 03:51:28 2017
Module time:
	user time   =      85.36 seconds =       1.42 minutes
	system time =       1.26 seconds =       0.02 minutes
	total time  =         51 seconds =       0.85 minutes
Total time:
	user time   =     211.16 seconds =       3.52 minutes
	system time =       3.17 seconds =       0.05 minutes
	total time  =        125 seconds =       2.08 minutes

*** tstart() called on computer03
*** at Sat Aug 12 03:51:28 2017


         ------------------------------------------------------------
                                   SCF GRAD                          
                          Rob Parrish, Justin Turney,                
                       Andy Simmonett, and Alex Sokolov              
         ------------------------------------------------------------

  ==> Geometry <==

    Molecular point group: c1
    Full point group: C1

    Geometry (in Angstrom), charge = 1, multiplicity = 1:

       Center              X                  Y                   Z               Mass       
    ------------   -----------------  -----------------  -----------------  -----------------
           C         -0.180510103274     0.042193318847    -0.043525374878    12.000000000000
           C          0.437109723830     0.499178778911     1.142631199863    12.000000000000
           C          1.797272765146     0.284651309517     1.338139771775    12.000000000000
           C          2.553724187782    -0.353383204068     0.347802482104    12.000000000000
           C          1.948388124589    -0.798847692257    -0.834757415626    12.000000000000
           C          0.584743131985    -0.619867647484    -1.028720134859    12.000000000000
           C         -1.617426625782     0.235181620775    -0.243812963971    12.000000000000
           H         -0.153244882633     0.960654469161     1.931260261848     1.007825032070
           H          2.266353741124     0.608156765542     2.262321027663     1.007825032070
           H          3.616782469907    -0.513093713911     0.501180831470     1.007825032070
           H          2.540532718867    -1.293009866279    -1.600686368590     1.007825032070
           H          0.122587310414    -0.965459263302    -1.951259284381     1.007825032070
           N         -2.390686982725    -0.643723332567    -0.963073861386    14.003074004780
           N         -2.209443744391     1.245687982041     0.385234392800    14.003074004780
           H         -3.217648382826     1.363978591316     0.345155852528     1.007825032070
           H         -1.672003327285     1.935840655706     0.942992727731     1.007825032070
           H         -3.076858594529    -1.235095761122    -0.509239087860     1.007825032070
           H         -2.275674658106    -0.761392261554    -1.962965193485     1.007825032070

  Nuclear repulsion =  415.142678089636547

  ==> Basis Set <==

  Basis Set: 6-31G*
    Blend: 6-31G*
    Number of shells: 72
    Number of basis function: 153
    Number of Cartesian functions: 153
    Spherical Harmonics?: false
    Max angular momentum: 2

  ==> DFJKGrad: Density-Fitted SCF Gradients <==

    Gradient:                    1
    J tasked:                  Yes
    K tasked:                  Yes
    wK tasked:                  No
    OpenMP threads:              8
    Integrals threads:           8
    Memory (MB):              1430
    Schwarz Cutoff:          0E+00
    Fitting Condition:       1E-12

   => Auxiliary Basis Set <=

  Basis Set: (6-31G* AUX)
    Blend: CC-PVDZ-JKFIT
    Number of shells: 297
    Number of basis function: 954
    Number of Cartesian functions: 954
    Spherical Harmonics?: false
    Max angular momentum: 3

  ==> DFT Potential <==

   => B3LYP Composite Functional <= 

    B3LYP Hybrid-GGA Exchange-Correlation Functional (VWN1-RPA)

    P.J. Stephens et. al., J. Phys. Chem., 98, 11623-11627, 1994

    Points   =           5000
    Deriv    =              1
    GGA      =           TRUE
    Meta     =          FALSE

    X_LRC        =          FALSE
    X_Hybrid     =           TRUE
    X_Alpha      =   2.000000E-01
    X_Omega      =   0.000000E+00
    C_LRC        =          FALSE
    C_Hybrid     =          FALSE
    C_Alpha      =   0.000000E+00
    C_Omega      =   0.000000E+00

   => Exchange Functionals <=

    0.8000    B3_X
    0.2000      HF 

   => Correlation Functionals <=

    0.1900 VWN3RPA_C
    0.8100   LYP_C

   => Molecular Quadrature <=

    Radial Scheme    =       TREUTLER
    Pruning Scheme   =           FLAT
    Nuclear Scheme   =       TREUTLER

    BS radius alpha  =              1
    Pruning alpha    =              1
    Radial Points    =             75
    Spherical Points =            302
    Total Points     =         396923
    Total Blocks     =            343
    Max Points       =           4915
    Max Functions    =            149


  -Total Gradient:
     Atom            X                  Y                   Z
    ------   -----------------  -----------------  -----------------
       1        0.001414713161    -0.003331021907     0.010331855734
       2       -0.002213560907    -0.000301533301     0.002097757078
       3        0.001263720776    -0.000406703197     0.000105497758
       4        0.000523157842     0.000311461641     0.000838851624
       5       -0.000926646584     0.000284219381     0.000182361090
       6        0.000664560391     0.000444652230    -0.001238359126
       7       -0.004369979816    -0.004364357549    -0.012843891324
       8       -0.002258751420     0.001082971597    -0.000278662750
       9        0.000092800071     0.000345435096     0.000346182334
      10        0.000146267309    -0.000040543844    -0.000071870771
      11        0.000354337074    -0.000747942550    -0.001085231037
      12       -0.000264602237     0.000154782608    -0.002559717760
      13        0.004479154192    -0.005594230008     0.003817768477
      14       -0.004844186893    -0.000223971963    -0.006941373645
      15       -0.000542146527    -0.000272447024     0.001921179869
      16        0.010215232842     0.014208707467     0.009236817075
      17        0.003616853197    -0.007169925888     0.000627646021
      18       -0.007349173124     0.005616186059    -0.004487509805


*** tstop() called on computer03 at Sat Aug 12 03:51:39 2017
Module time:
	user time   =      23.38 seconds =       0.39 minutes
	system time =       0.36 seconds =       0.01 minutes
	total time  =         11 seconds =       0.18 minutes
Total time:
	user time   =     234.71 seconds =       3.91 minutes
	system time =       3.54 seconds =       0.06 minutes
	total time  =        136 seconds =       2.27 minutes

			-----------------------------------------
			 OPTKING 2.0: for geometry optimizations 
			  - R.A. King,  Bethel University        
			-----------------------------------------
	At level 1: Red. Int., RFO, no backsteps, dynamic trust

	Previous internal coordinate definitions found.
	---Fragment 1 Geometry and Gradient---
	 C          -0.3411146594        0.0797338173       -0.0822510384
	 C           0.8260176681        0.9433111835        2.1592600386
	 C           3.3963533122        0.5379130184        2.5287176962
	 C           4.8258393338       -0.6677974756        0.6572514395
	 C           3.6819199560       -1.5096033603       -1.5774629029
	 C           1.1050043775       -1.1713800924       -1.9439993223
	 C          -3.0564933628        0.4444288548       -0.4607397296
	 H          -0.2895908594        1.8153738550        3.6495529862
	 H           4.2827878910        1.1492497327        4.2751671670
	 H           6.8347283503       -0.9696065998        0.9470945145
	 H           4.8009110703       -2.4434345344       -3.0248588613
	 H           0.2316564440       -1.8244536001       -3.6873456617
	 N          -4.5177436668       -1.2164608039       -1.8199458438
	 N          -4.1752435829        2.3540091331        0.7279874994
	 H          -6.0804742355        2.5775459887        0.6522500344
	 H          -3.1596283818        3.6582086762        1.7819980007
	 H          -5.8144200933       -2.3339927364       -0.9623224122
	 H          -4.3004018714       -1.4388228540       -3.7094666241
	             0.0014147132       -0.0033310219        0.0103318557
	            -0.0022135609       -0.0003015333        0.0020977571
	             0.0012637208       -0.0004067032        0.0001054978
	             0.0005231578        0.0003114616        0.0008388516
	            -0.0009266466        0.0002842194        0.0001823611
	             0.0006645604        0.0004446522       -0.0012383591
	            -0.0043699798       -0.0043643575       -0.0128438913
	            -0.0022587514        0.0010829716       -0.0002786628
	             0.0000928001        0.0003454351        0.0003461823
	             0.0001462673       -0.0000405438       -0.0000718708
	             0.0003543371       -0.0007479426       -0.0010852310
	            -0.0002646022        0.0001547826       -0.0025597178
	             0.0044791542       -0.0055942300        0.0038177685
	            -0.0048441869       -0.0002239720       -0.0069413736
	            -0.0005421465       -0.0002724470        0.0019211799
	             0.0102152328        0.0142087075        0.0092368171
	             0.0036168532       -0.0071699259        0.0006276460
	            -0.0073491731        0.0056161861       -0.0044875098

	---Fragment 1 Intrafragment Coordinates---
	 - Coordinate -           - BOHR/RAD -       - ANG/DEG -
	 R(1,2)           =         2.670643	       1.413244
	 R(1,6)           =         2.668830	       1.412284
	 R(1,7)           =         2.765780	       1.463588
	 R(2,3)           =         2.628207	       1.390787
	 R(2,8)           =         2.055736	       1.087848
	 R(3,4)           =         2.645667	       1.400027
	 R(3,9)           =         2.051727	       1.085727
	 R(4,5)           =         2.647855	       1.401185
	 R(4,10)          =         2.052007	       1.085875
	 R(5,6)           =         2.624736	       1.388950
	 R(5,11)          =         2.054054	       1.086958
	 R(6,12)          =         2.056331	       1.088164
	 R(7,13)          =         2.596391	       1.373951
	 R(7,14)          =         2.512204	       1.329401
	 R(13,17)         =         1.914619	       1.013173
	 R(13,18)         =         1.914934	       1.013339
	 R(14,15)         =         1.919794	       1.015911
	 R(14,16)         =         1.960446	       1.037423
	 B(1,2,3)         =         2.089216	     119.703256
	 B(1,2,8)         =         2.104197	     120.561599
	 B(1,6,5)         =         2.088602	     119.668077
	 B(1,6,12)        =         2.106171	     120.674721
	 B(1,7,13)        =         2.141036	     122.672346
	 B(1,7,14)        =         2.063134	     118.208851
	 B(2,1,6)         =         2.094720	     120.018608
	 B(2,1,7)         =         2.095872	     120.084633
	 B(2,3,4)         =         2.093556	     119.951904
	 B(2,3,9)         =         2.090044	     119.750720
	 B(3,2,8)         =         2.087776	     119.620773
	 B(3,4,5)         =         2.104194	     120.561431
	 B(3,4,10)        =         2.089866	     119.740498
	 B(4,3,9)         =         2.099567	     120.296335
	 B(4,5,6)         =         2.095593	     120.068654
	 B(4,5,11)        =         2.098895	     120.257818
	 B(5,4,10)        =         2.089080	     119.695449
	 B(5,6,12)        =         2.087988	     119.632894
	 B(6,1,7)         =         2.092470	     119.889703
	 B(6,5,11)        =         2.088663	     119.671564
	 B(7,13,17)       =         2.117696	     121.335046
	 B(7,13,18)       =         2.125810	     121.799940
	 B(7,14,15)       =         2.108060	     120.782968
	 B(7,14,16)       =         2.128658	     121.963115
	 B(13,7,14)       =         2.075243	     118.902647
	 B(15,14,16)      =         2.046397	     117.249903
	 B(17,13,18)      =         2.038771	     116.812948
	 D(1,2,3,4)       =         0.026328	       1.508465
	 D(1,2,3,9)       =        -3.108805	    -178.121420
	 D(1,6,5,4)       =         0.027393	       1.569476
	 D(1,6,5,11)      =        -3.123075	    -178.939010
	*D(1,7,13,17)     =         1.919862	     110.000017
	 D(1,7,13,18)     =        -1.174462	     -67.291700
	 D(1,7,14,15)     =        -3.039923	    -174.174766
	 D(1,7,14,16)     =         0.088597	       5.076228
	 D(2,1,6,5)       =        -0.018428	      -1.055826
	 D(2,1,6,12)      =        -3.128606	    -179.255899
	 D(2,1,7,13)      =        -2.593233	    -148.581309
	 D(2,1,7,14)      =         0.454009	      26.012810
	 D(2,3,4,5)       =        -0.017535	      -1.004662
	 D(2,3,4,10)      =         3.134370	     179.586157
	 D(3,2,1,6)       =        -0.008528	      -0.488622
	 D(3,2,1,7)       =         3.116182	     178.544083
	 D(3,4,5,6)       =        -0.009667	      -0.553862
	 D(3,4,5,11)      =         3.140853	     179.957633
	 D(4,3,2,8)       =         3.100453	     177.642887
	 D(4,5,6,12)      =         3.137901	     179.788469
	 D(5,4,3,9)       =         3.117563	     178.623180
	 D(5,6,1,7)       =         3.140014	     179.909571
	 D(6,1,2,8)       =        -3.082008	    -176.586028
	 D(6,1,7,13)      =         0.531499	      30.452650
	 D(6,1,7,14)      =        -2.704444	    -154.953232
	 D(6,5,4,10)      =         3.121619	     178.855585
	 D(7,1,2,8)       =         0.042703	       2.446677
	 D(7,1,6,12)      =         0.029836	       1.709498
	 D(8,2,3,9)       =        -0.034680	      -1.986998
	 D(9,3,4,10)      =        -0.013718	      -0.786001
	 D(10,4,5,11)     =        -0.011047	      -0.632921
	 D(11,5,6,12)     =        -0.012567	      -0.720018
	 D(13,7,14,15)    =         0.010958	       0.627855
	 D(13,7,14,16)    =         3.139478	     179.878848
	 D(14,7,13,17)    =        -1.126754	     -64.558252
	 D(14,7,13,18)    =         2.062107	     118.150031

	Current energy   :      -381.4350145180

	Energy change for the previous step:
		Projected    :        -0.0042607207
		Actual       :        -0.0080725801
	Energy ratio indicates good step: Trust radius increased to 1.000e+00.


	Performing BFGS update.
	Previous computed or guess Hessian on step 1.
	Steps to be used in Hessian update: 1
	Taking RFO optimization step.
	Going to follow RFO solution 1.
	Using RFO vector 1.
	Norm of target step-size    0.57307
	Projected energy change by RFO approximation:        -0.0021473509

	Back-transformation to cartesian coordinates...
	Could not converge backtransformation.
	Using first guess instead.

	Back-transformation to cartesian coordinates to adjust frozen coordinates...
	Successfully converged to displaced geometry.

	--- Internal Coordinate Step in ANG or DEG, aJ/ANG or AJ/DEG ---
	 ---------------------------------------------------------------------------
	   Coordinate                Previous        Force       Change         New 
	   ----------                --------       ------       ------       ------
	    1 R(1,2)          =      1.413244     0.003492     0.003936     1.417180
	    2 R(1,6)          =      1.412284    -0.013384     0.001995     1.414279
	    3 R(1,7)          =      1.463588    -0.002418    -0.001748     1.461839
	    4 R(2,3)          =      1.390787    -0.011544    -0.001510     1.389277
	    5 R(2,8)          =      1.087848    -0.012222    -0.000552     1.087297
	    6 R(3,4)          =      1.400027    -0.009884     0.000555     1.400582
	    7 R(3,9)          =      1.085727    -0.003608     0.000007     1.085734
	    8 R(4,5)          =      1.401185    -0.018350    -0.000420     1.400764
	    9 R(4,10)         =      1.085875    -0.001144     0.000146     1.086022
	   10 R(5,6)          =      1.388950    -0.000940    -0.000793     1.388157
	   11 R(5,11)         =      1.086958    -0.010689     0.000294     1.087252
	   12 R(6,12)         =      1.088164    -0.018398    -0.000363     1.087801
	   13 R(7,13)         =      1.373951    -0.034393     0.017372     1.391323
	   14 R(7,14)         =      1.329401    -0.084593    -0.003266     1.326136
	   15 R(13,17)        =      1.013173    -0.016614    -0.000090     1.013083
	   16 R(13,18)        =      1.013339    -0.024237     0.024378     1.037717
	   17 R(14,15)        =      1.015911    -0.003550     0.004664     1.020575
	   18 R(14,16)        =      1.037423    -0.162387     0.002849     1.040272
	   19 B(1,2,3)        =    119.703256     0.000080     0.242421   119.945678
	   20 B(1,2,8)        =    120.561599     0.000108     0.621598   121.183197
	   21 B(1,6,5)        =    119.668077     0.000145     0.482689   120.150766
	   22 B(1,6,12)       =    120.674721    -0.000113    -0.269192   120.405528
	   23 B(1,7,13)       =    122.672346    -0.000114     0.680263   123.352610
	   24 B(1,7,14)       =    118.208851     0.001045     2.429889   120.638740
	   25 B(2,1,6)        =    120.018608    -0.000203    -0.658677   119.359931
	   26 B(2,1,7)        =    120.084633     0.000450     1.450203   121.534836
	   27 B(2,3,4)        =    119.951904     0.000042     0.105407   120.057311
	   28 B(2,3,9)        =    119.750720    -0.000009    -0.039105   119.711614
	   29 B(3,2,8)        =    119.620773    -0.000189    -0.911075   118.709698
	   30 B(3,4,5)        =    120.561431    -0.000048    -0.090980   120.470451
	   31 B(3,4,10)       =    119.740498     0.000017     0.048802   119.789301
	   32 B(4,3,9)        =    120.296335    -0.000033    -0.068094   120.228241
	   33 B(4,5,6)        =    120.068654    -0.000016    -0.108821   119.959833
	   34 B(4,5,11)       =    120.257818    -0.000023    -0.041056   120.216762
	   35 B(5,4,10)       =    119.695449     0.000031     0.033592   119.729041
	   36 B(5,6,12)       =    119.632894    -0.000032    -0.192726   119.440168
	   37 B(6,1,7)        =    119.889703    -0.000248    -0.812235   119.077468
	   38 B(6,5,11)       =    119.671564     0.000040     0.143442   119.815007
	   39 B(7,13,17)      =    121.335046    -0.000065     0.060525   121.395571
	   40 B(7,13,18)      =    121.799940    -0.000095    -2.541354   119.258586
	   41 B(7,14,15)      =    120.782968    -0.000071    -1.603075   119.179893
	   42 B(7,14,16)      =    121.963115     0.000019     1.246704   123.209819
	   43 B(13,7,14)      =    118.902647    -0.000932    -3.258548   115.644099
	   44 B(15,14,16)     =    117.249903     0.000052     0.323882   117.573785
	   45 B(17,13,18)     =    116.812948     0.000136    -0.454474   116.358474
	   46 D(1,2,3,4)      =      1.508465    -0.000001     0.133336     1.641801
	   47 D(1,2,3,9)      =   -178.121420     0.000001     0.374167  -177.747252
	   48 D(1,6,5,4)      =      1.569476     0.000003     0.670164     2.239640
	   49 D(1,6,5,11)     =   -178.939010     0.000001     0.126781  -178.812229
	   50 *D(1,7,13,17)   =    110.000017    -0.000000    -0.000000   110.000017
	   51 D(1,7,13,18)    =    -67.291700     0.000143    17.556321   -49.735380
	   52 D(1,7,14,15)    =   -174.174766    -0.000023    -2.578809  -176.753575
	   53 D(1,7,14,16)    =      5.076228    -0.000023    -4.082711     0.993517
	   54 D(2,1,6,5)      =     -1.055826    -0.000006    -1.095613    -2.151439
	   55 D(2,1,6,12)     =   -179.255899    -0.000013    -2.207495  -181.463394
	   56 D(2,1,7,13)     =   -148.581309    -0.000022    -6.122813  -154.704122
	   57 D(2,1,7,14)     =     26.012810    -0.000037    -7.954998    18.057812
	   58 D(2,3,4,5)      =     -1.004662    -0.000002    -0.569727    -1.574390
	   59 D(2,3,4,10)     =    179.586157     0.000001     0.060467   179.646623
	   60 D(3,2,1,6)      =     -0.488622     0.000005     0.690441     0.201819
	   61 D(3,2,1,7)      =    178.544083    -0.000001    -0.276933   178.267150
	   62 D(3,4,5,6)      =     -0.553862     0.000002     0.171433    -0.382429
	   63 D(3,4,5,11)     =    179.957633     0.000004     0.716077   180.673710
	   64 D(4,3,2,8)      =    177.642887    -0.000004    -0.563653   177.079234
	   65 D(4,5,6,12)     =    179.788469     0.000009     1.769767   181.558236
	   66 D(5,4,3,9)      =    178.623180    -0.000005    -0.811701   177.811479
	   67 D(5,6,1,7)      =    179.909571    -0.000001    -0.174265   179.735306
	   68 D(6,1,2,8)      =   -176.586028     0.000011     1.465589  -175.120439
	   69 D(6,1,7,13)     =     30.452650    -0.000028    -7.086112    23.366538
	   70 D(6,1,7,14)     =   -154.953232    -0.000043    -8.918297  -163.871528
	   71 D(6,5,4,10)     =    178.855585    -0.000001    -0.458292   178.397293
	   72 D(7,1,2,8)      =      2.446677     0.000005     0.498215     2.944892
	   73 D(7,1,6,12)     =      1.709498    -0.000008    -1.286147     0.423351
	   74 D(8,2,3,9)      =     -1.986998    -0.000002    -0.322822    -2.309819
	   75 D(9,3,4,10)     =     -0.786001    -0.000001    -0.181508    -0.967509
	   76 D(10,4,5,11)    =     -0.632921     0.000000     0.086352    -0.546568
	   77 D(11,5,6,12)    =     -0.720018     0.000007     1.226384     0.506367
	   78 D(13,7,14,15)   =      0.627855    -0.000028    -4.085470    -3.457615
	   79 D(13,7,14,16)   =    179.878848    -0.000028    -5.589372   174.289477
	   80 D(14,7,13,17)   =    -64.558252    -0.000009     1.464683   -63.093569
	   81 D(14,7,13,18)   =    118.150031     0.000134    19.021004   137.171035
	 ---------------------------------------------------------------------------
	Successfully symmetrized geometry.

  ==> Convergence Check <==

  Measures of convergence in internal coordinates in au.
  Criteria marked as inactive (o), active & met (*), and active & unmet ( ).
  ---------------------------------------------------------------------------------------------
   Step     Total Energy     Delta E     MAX Force     RMS Force      MAX Disp      RMS Disp   
  ---------------------------------------------------------------------------------------------
    Convergence Criteria    1.00e-06 *    3.00e-04 *             o    1.20e-03 *             o
  ---------------------------------------------------------------------------------------------
      2    -381.43501452   -8.07e-03      1.97e-02      3.71e-03 o    3.32e-01      6.24e-02 o  ~
  ---------------------------------------------------------------------------------------------

	Writing optimization data to binary file.
	Structure for next step:
	Cartesian Geometry (in Angstrom)
	    C    -0.1783227229   0.0831339187  -0.0336477255
	    C     0.4769124920   0.5632909718   1.1276077578
	    C     1.8331501667   0.3223444937   1.3083157687
	    C     2.5603327546  -0.3645401197   0.3279969892
	    C     1.9234396738  -0.8423557323  -0.8244785549
	    C     0.5605258120  -0.6428105787  -0.9966082263
	    C    -1.6112857759   0.2842727419  -0.2413356067
	    H    -0.0766507919   1.0557871679   1.9233647187
	    H     2.3233776770   0.6599501161   2.2163455936
	    H     3.6215667741  -0.5454802737   0.4711278627
	    H     2.4897778200  -1.3845834750  -1.5777164696
	    H     0.0697560540  -1.0396080378  -1.8826148584
	    N    -2.3927942200  -0.5465923527  -1.0380081544
	    N    -2.2710684311   1.2061343343   0.4467735524
	    H    -3.2799928504   1.2940218804   0.3205932367
	    H    -1.8165490104   1.8315142665   1.1428179048
	    H    -3.0861601158  -1.1651908472  -0.6343793359
	    H    -2.0720184338  -0.7776377250  -1.9974755901
			--------------------------
			 OPTKING Finished Execution 
			--------------------------

    Structure for next step:
    Molecular point group: c1
    Full point group: C1

    Geometry (in Angstrom), charge = 1, multiplicity = 1:

    C           -0.175245551091     0.066583572165    -0.031310573515
    C            0.479989663813     0.546740625325     1.129944909770
    C            1.836227338550     0.305794147204     1.310652920658
    C            2.563409926458    -0.381090466180     0.330334141223
    C            1.926516845640    -0.858906078779    -0.822141402945
    C            0.563602983873    -0.659360925252    -0.994271074335
    C           -1.608208604110     0.267722395366    -0.238998454734
    H           -0.073573620095     1.039236821348     1.925701870661
    H            2.326454848855     0.643399769538     2.218682745627
    H            3.624643945912    -0.562030620230     0.473465014699
    H            2.492854991786    -1.401133821524    -1.575379317652
    H            0.072833225834    -1.056158384299    -1.880277706436
    N           -2.389717048166    -0.563142699174    -1.035671002438
    N           -2.267991259312     1.189583987803     0.449110704424
    H           -3.276915678551     1.277471533886     0.322930388731
    H           -1.813471838536     1.814963919954     1.145155056820
    H           -3.083082943951    -1.181741193769    -0.632042183934
    H           -2.068941261930    -0.794188071494    -1.995138438117

gradient() will perform analytic gradient computation.

*** tstart() called on computer03
*** at Sat Aug 12 03:51:39 2017

   => Loading Basis Set <=

    Name: 6-31G*
    Role: ORBITAL
    Keyword: BASIS
    atoms 1-7         entry C          line   102 file /home/raimis/opt/miniconda3/envs/htmd/share/psi4/basis/6-31gs.gbs 
    atoms 8-12, 15-18 entry H          line    35 file /home/raimis/opt/miniconda3/envs/htmd/share/psi4/basis/6-31gs.gbs 
    atoms 13-14       entry N          line   119 file /home/raimis/opt/miniconda3/envs/htmd/share/psi4/basis/6-31gs.gbs 


         ---------------------------------------------------------
                                   SCF
            by Justin Turney, Rob Parrish, and Andy Simmonett
                              RKS Reference
                        8 Threads,   1907 MiB Core
         ---------------------------------------------------------

  ==> Geometry <==

    Molecular point group: c1
    Full point group: C1

    Geometry (in Angstrom), charge = 1, multiplicity = 1:

       Center              X                  Y                   Z               Mass       
[...]
	 R(15,X)          =        -6.180129	      -3.270384
	 R(15,Y)          =         2.456796	       1.300081
	 R(15,Z)          =         0.658277	       0.348345
	 R(16,X)          =        -3.467473	      -1.834908
	 R(16,Y)          =         3.246707	       1.718083
	 R(16,Z)          =         2.296292	       1.215146
	 R(17,X)          =        -5.767334	      -3.051942
	 R(17,Y)          =        -2.030342	      -1.074411
	 R(17,Z)          =        -1.277421	      -0.675982
	 R(18,X)          =        -3.477814	      -1.840380
	 R(18,Y)          =        -1.847743	      -0.977784
	 R(18,Z)          =        -3.361941	      -1.779063

	Current energy   :      -381.4507772836

	Energy change for the previous step:
		Projected    :        -0.0000011910
		Actual       :        -0.0000006559

	Performing BFGS update.
	Previous computed or guess Hessian on step 1.
	Steps to be used in Hessian update: 2 1
	Taking RFO optimization step.
	Going to follow RFO solution 1.
	Rejecting RFO root 1 because normalization gives large value.
	Rejecting RFO root 2 because normalization gives large value.
	Rejecting RFO root 3 because normalization gives large value.
	Rejecting RFO root 4 because normalization gives large value.
	Using RFO vector 5.

	Determining step-restricting scale parameter for RS-RFO.
	Maximum step size allowed    0.10000

	 Iter      |step|        alpha        rfo_root  
	------------------------------------------------
	    0   261.28745       1.00000           5
	    1   130.66913       1.99962           5
	    2    65.35998       3.99774           5
	    3    32.70541       7.98946           5
	    4    16.37815      15.95490           5
	    5     8.21455      31.81394           5
	    6     4.13283      63.24679           5
	    7     2.09212     124.98742           5
	    8     1.07206     244.09299           5
	    9     0.56262     465.75394           5
	   10     0.30909     849.84342           5
	   11     0.18464    1427.82859           5
	   12     0.12678    2088.37159           5
	   13     0.10472    2535.46269           5
	   14     0.10021    2651.72105           5
	   15     0.10000    2657.29884           5
	------------------------------------------------
	Norm of target step-size    0.10000
	Projected energy change by RFO approximation:        -0.0000430330

	Back-transformation to cartesian coordinates...
	Successfully converged to displaced geometry.

	Back-transformation to cartesian coordinates to adjust frozen coordinates...
	Successfully converged to displaced geometry.

	--- Internal Coordinate Step in ANG or DEG, aJ/ANG or AJ/DEG ---
	 ---------------------------------------------------------------------------
	   Coordinate                Previous        Force       Change         New 
	   ----------                --------       ------       ------       ------
	    1 R(1,2)          =      1.412546     0.000198     0.002956     1.415503
	    2 R(1,6)          =      1.411320    -0.000192     0.001429     1.412748
	    3 R(1,7)          =      1.463047     0.000018    -0.006120     1.456928
	    4 R(2,3)          =      1.388465     0.000066     0.000846     1.389311
	    5 R(2,8)          =      1.085792    -0.000010     0.000273     1.086065
	    6 R(3,4)          =      1.398831    -0.000031     0.000987     1.399819
	    7 R(3,9)          =      1.085012    -0.000003    -0.000365     1.084647
	    8 R(4,5)          =      1.397632     0.000004    -0.000913     1.396718
	    9 R(4,10)         =      1.085596    -0.000021    -0.000648     1.084948
	   10 R(5,6)          =      1.389247    -0.000025    -0.000419     1.388828
	   11 R(5,11)         =      1.084935     0.000011    -0.000483     1.084452
	   12 R(6,12)         =      1.085831     0.000021    -0.000797     1.085035
	   13 R(7,13)         =      1.370718    -0.000178    -0.001444     1.369274
	   14 R(7,14)         =      1.323068    -0.000038     0.001455     1.324524
	   15 R(13,17)        =      1.018039     0.000488    -0.000436     1.017603
	   16 R(13,18)        =      1.014575    -0.000339     0.004040     1.018615
	   17 R(14,15)        =      1.014222     0.000051    -0.002468     1.011755
	   18 R(14,16)        =      1.011021     0.000171    -0.001381     1.009640
	   19 B(1,2,3)        =    120.347088    -0.000001     0.085059   120.432147
	   20 B(1,2,8)        =    121.508626     0.000001     0.117581   121.626207
	   21 B(1,6,5)        =    120.473664     0.000000     0.011883   120.485547
	   22 B(1,6,12)       =    121.439837    -0.000000    -0.095705   121.344132
	   23 B(1,7,13)       =    123.449313    -0.000001     0.047825   123.497138
	   24 B(1,7,14)       =    121.466349     0.000002     0.362450   121.828799
	   25 B(2,1,6)        =    118.859459     0.000000    -0.174379   118.685080
	   26 B(2,1,7)        =    120.791326    -0.000002    -0.291792   120.499534
	   27 B(2,3,4)        =    120.119001     0.000000    -0.058333   120.060668
	   28 B(2,3,9)        =    119.640648    -0.000000     0.003248   119.643895
	   29 B(3,2,8)        =    118.066371    -0.000000    -0.194935   117.871436
	   30 B(3,4,5)        =    120.166564    -0.000000    -0.023698   120.142866
	   31 B(3,4,10)       =    119.898483     0.000000    -0.013573   119.884911
	   32 B(4,3,9)        =    120.240170     0.000000     0.049586   120.289756
	   33 B(4,5,6)        =    120.017986     0.000000     0.152357   120.170344
	   34 B(4,5,11)       =    120.291649     0.000000     0.065282   120.356930
	   35 B(5,4,10)       =    119.934759     0.000000     0.037408   119.972167
	   36 B(5,6,12)       =    118.055768    -0.000000     0.091139   118.146907
	   37 B(6,1,7)        =    120.348870     0.000002     0.465213   120.814083
	   38 B(6,5,11)       =    119.690348    -0.000001    -0.221987   119.468361
	   39 B(7,13,17)      =    115.278809    -0.000000    -0.987557   114.291252
	   40 B(7,13,18)      =    113.788336     0.000002     0.022527   113.810863
	   41 B(7,14,15)      =    120.079700    -0.000001    -0.336947   119.742754
	   42 B(7,14,16)      =    122.465339     0.000000     0.449668   122.915007
	   43 B(13,7,14)      =    114.841790    -0.000001    -0.351524   114.490266
	   44 B(15,14,16)     =    117.150776    -0.000000    -0.022139   117.128637
	   45 B(17,13,18)     =    107.705307    -0.000002     0.684250   108.389557
	   46 D(1,2,3,4)      =      1.420558     0.000000    -0.158623     1.261935
	   47 D(1,2,3,9)      =   -178.424848     0.000000     0.551160  -177.873688
	   48 D(1,6,5,4)      =      0.805890     0.000000     0.356704     1.162594
	   49 D(1,6,5,11)     =   -179.241533     0.000000    -0.353166  -179.594698
	   50 *D(1,7,13,17)   =    110.000017    -0.000000     0.000000   110.000017
	   51 D(1,7,13,18)    =    -15.150394     0.000000    -0.123425   -15.273820
	   52 D(1,7,14,15)    =    177.996483    -0.000001    -0.322838   177.673646
	   53 D(1,7,14,16)    =      4.513396    -0.000000    -1.373399     3.139997
	   54 D(2,1,6,5)      =     -0.022151    -0.000000     0.123541     0.101391
	   55 D(2,1,6,12)     =   -177.966396    -0.000000    -0.139391  -178.105787
	   56 D(2,1,7,13)     =   -161.934850    -0.000000    -0.979194  -162.914044
	   57 D(2,1,7,14)     =     12.112201    -0.000001    -0.227278    11.884923
	   58 D(2,3,4,5)      =     -0.628148    -0.000000     0.643332     0.015185
	   59 D(2,3,4,10)     =    179.532066    -0.000000     0.396492   179.928558
	   60 D(3,2,1,6)      =     -1.093231    -0.000000    -0.221813    -1.315044
	   61 D(3,2,1,7)      =    178.693740     0.000000     0.403134   179.096874
	   62 D(3,4,5,6)      =     -0.487569    -0.000000    -0.742760    -1.230328
	   63 D(3,4,5,11)     =    179.560143    -0.000000    -0.026391   179.533751
	   64 D(4,3,2,8)      =    178.259157     0.000000     0.005036   178.264193
	   65 D(4,5,6,12)     =    178.818422     0.000000     0.607653   179.426075
	   66 D(5,4,3,9)      =    179.216324    -0.000000    -0.071153   179.145171
	   67 D(5,6,1,7)      =   -179.810092    -0.000000    -0.501779  -180.311870
	   68 D(6,1,2,8)      =   -177.821055    -0.000000    -0.381676  -178.202731
	   69 D(6,1,7,13)     =     17.848952    -0.000000    -0.342234    17.506717
	   70 D(6,1,7,14)     =   -168.103998    -0.000001     0.409682  -167.694316
	   71 D(6,5,4,10)     =    179.352159    -0.000000    -0.495785   178.856375
	   72 D(7,1,2,8)      =      1.965917    -0.000000     0.243270     2.209187
	   73 D(7,1,6,12)     =      2.245663    -0.000000    -0.764711     1.480952
	   74 D(8,2,3,9)      =     -1.586249     0.000000     0.714819    -0.871430
	   75 D(9,3,4,10)     =     -0.623463    -0.000000    -0.317993    -0.941456
	   76 D(10,4,5,11)    =     -0.600129    -0.000000     0.220584    -0.379546
	   77 D(11,5,6,12)    =     -1.229001     0.000000    -0.102216    -1.331217
	   78 D(13,7,14,15)   =     -7.475423    -0.000001     0.384121    -7.091302
	   79 D(13,7,14,16)   =    179.041489    -0.000001    -0.666440   178.375049
	   80 D(14,7,13,17)   =    -64.405888     0.000000    -0.739143   -65.145031
	   81 D(14,7,13,18)   =    170.443701     0.000001    -0.862568   169.581133
	   82 R(1,X)          =     -0.180140     0.000108    -0.002646    -0.182786
	   83 R(1,Y)          =      0.054061    -0.000115    -0.010231     0.043830
	   84 R(1,Z)          =     -0.037644    -0.000328    -0.000111    -0.037754
	   85 R(2,X)          =      0.479820     0.000015    -0.000139     0.479681
	   86 R(2,Y)          =      0.541834     0.000158    -0.002792     0.539042
	   87 R(2,Z)          =      1.112060    -0.000148    -0.001097     1.110963
	   88 R(3,X)          =      1.833638     0.000061     0.001988     1.835626
	   89 R(3,Y)          =      0.297790     0.000091     0.003728     0.301518
	   90 R(3,Z)          =      1.300351    -0.000071    -0.001823     1.298529
	   91 R(4,X)          =      2.560279     0.000102     0.002463     2.562742
	   92 R(4,Y)          =     -0.408683     0.000039    -0.000234    -0.408918
	   93 R(4,Z)          =      0.336184     0.000042     0.000016     0.336200
	   94 R(5,X)          =      1.924309     0.000108     0.003896     1.928204
	   95 R(5,Y)          =     -0.883253    -0.000048     0.002455    -0.880798
	   96 R(5,Z)          =     -0.814337     0.000071    -0.000772    -0.815109
	   97 R(6,X)          =      0.565052     0.000122     0.002787     0.567840
	   98 R(6,Y)          =     -0.662751    -0.000175    -0.006938    -0.669689
	   99 R(6,Z)          =     -0.998212     0.000009    -0.000432    -0.998645
	  100 R(7,X)          =     -1.612327     0.000101     0.003522    -1.608804
	  101 R(7,Y)          =      0.281123     0.000151    -0.005865     0.275258
	  102 R(7,Z)          =     -0.232041    -0.000102     0.005737    -0.226304
	  103 R(8,X)          =     -0.058093     0.000123     0.002120    -0.055973
	  104 R(8,Y)          =      1.068150     0.000352     0.000564     1.068714
	  105 R(8,Z)          =      1.894738    -0.000218    -0.001433     1.893305
	  106 R(9,X)          =      2.323382    -0.000027    -0.000493     2.322889
	  107 R(9,Y)          =      0.655747     0.000117     0.001329     0.657076
	  108 R(9,Z)          =      2.199946    -0.000037     0.000033     2.199979
	  109 R(10,X)         =      3.620291     0.000072     0.001471     3.621762
	  110 R(10,Y)         =     -0.590884     0.000025    -0.000895    -0.591779
	  111 R(10,Z)         =      0.483479     0.000085     0.001548     0.485027
	  112 R(11,X)         =      2.487416     0.000070     0.002348     2.489765
	  113 R(11,Y)         =     -1.425251    -0.000109     0.000220    -1.425031
	  114 R(11,Z)         =     -1.566820     0.000069     0.000382    -1.566438
	  115 R(12,X)         =      0.107488     0.000161     0.002890     0.110378
	  116 R(12,Y)         =     -1.028237    -0.000550    -0.013755    -1.041991
	  117 R(12,Z)         =     -1.912589     0.000114     0.003219    -1.909370
	  118 R(13,X)         =     -2.380111     0.000140     0.000249    -2.379862
	  119 R(13,Y)         =     -0.442568     0.000430     0.006888    -0.435680
	  120 R(13,Z)         =     -1.107053    -0.000088     0.000437    -1.106616
	  121 R(14,X)         =     -2.284477    -0.000107     0.002061    -2.282416
	  122 R(14,Y)         =      1.136403    -0.000321    -0.002655     1.133748
	  123 R(14,Z)         =      0.521099     0.000182     0.003333     0.524432
	  124 R(15,X)         =     -3.270384    -0.000019     0.005908    -3.264475
	  125 R(15,Y)         =      1.300081    -0.000018    -0.003987     1.296093
	  126 R(15,Z)         =      0.348345    -0.000334    -0.005160     0.343185
	  127 R(16,X)         =     -1.834908    -0.000303    -0.009233    -1.844141
	  128 R(16,Y)         =      1.718083    -0.000562    -0.012568     1.705515
	  129 R(16,Z)         =      1.215146     0.000761     0.016655     1.231801
	  130 R(17,X)         =     -3.051942    -0.000181     0.005272    -3.046669
	  131 R(17,Y)         =     -1.074411     0.000105     0.009297    -1.065114
	  132 R(17,Z)         =     -0.675982     0.000088     0.010611    -0.665371
	  133 R(18,X)         =     -1.840380    -0.000490    -0.001069    -1.841449
	  134 R(18,Y)         =     -0.977784     0.000433     0.012228    -0.965556
	  135 R(18,Z)         =     -1.779063    -0.000085    -0.010868    -1.789931
	 ---------------------------------------------------------------------------
	Successfully symmetrized geometry.

  ==> Convergence Check <==

  Measures of convergence in internal coordinates in au.
  Criteria marked as inactive (o), active & met (*), and active & unmet ( ).
  ---------------------------------------------------------------------------------------------
   Step     Total Energy     Delta E     MAX Force     RMS Force      MAX Disp      RMS Disp   
  ---------------------------------------------------------------------------------------------
    Convergence Criteria    1.00e-06 *    3.00e-04 *             o    1.20e-03 *             o
  ---------------------------------------------------------------------------------------------
      3    -381.45077728   -6.56e-07 *    9.24e-05 *    2.23e-05 o    3.15e-02      8.61e-03 o  ~
  ---------------------------------------------------------------------------------------------


  **** Optimization is complete! (in 3 steps) ****

  ==> Optimization Summary <==

  Measures of convergence in internal coordinates in au.
  --------------------------------------------------------------------------------------------------------------- ~
   Step         Total Energy             Delta E       MAX Force       RMS Force        MAX Disp        RMS Disp  ~
  --------------------------------------------------------------------------------------------------------------- ~
      1    -381.450774962232   -381.450774962232      0.00013938      0.00004324      0.00261089      0.00051548  ~
      2    -381.450776627655     -0.000001665423      0.00008376      0.00002329      0.00138871      0.00036750  ~
      3    -381.450777283563     -0.000000655908      0.00009241      0.00002233      0.03147356      0.00860629  ~
  --------------------------------------------------------------------------------------------------------------- ~

	Writing optimization data to binary file.
	Final energy is   -381.4507772835627
	Final (previous) structure:
	Cartesian Geometry (in Angstrom)
	    C    -0.1801395368   0.0540611354  -0.0376436626
	    C     0.4798198928   0.5418339993   1.1120596940
	    C     1.8336378238   0.2977900192   1.3003513868
	    C     2.5602787481  -0.4086833313   0.3361844410
	    C     1.9243085396  -0.8832526129  -0.8143371359
	    C     0.5650522674  -0.6627513440  -0.9982124468
	    C    -1.6123268096   0.2811231782  -0.2320412511
	    H    -0.0580933351   1.0681500776   1.8947375378
	    H     2.3233819329   0.6557467831   2.1999456205
	    H     3.6202913143  -0.5908836923   0.4834788570
	    H     2.4874163562  -1.4252508461  -1.5668204197
	    H     0.1074879551  -1.0282366231  -1.9125894583
	    N    -2.3801113861  -0.4425680375  -1.1070530478
	    N    -2.2844765698   1.1364032743   0.5210994385
	    H    -3.2703836649   1.3000805257   0.3483450438
	    H    -1.8349079252   1.7180833225   1.2151455869
	    H    -3.0519416976  -1.0744106052  -0.6759818399
	    H    -1.8403801046  -0.9777836273  -1.7790628107
	Saving final (previous) structure.
			--------------------------
			 OPTKING Finished Execution 
			--------------------------

    Final optimized geometry and variables:
    Molecular point group: c1
    Full point group: C1

    Geometry (in Angstrom), charge = 1, multiplicity = 1:

    C           -0.180139536843     0.054061135390    -0.037643662609
    C            0.479819892822     0.541833999333     1.112059693953
    C            1.833637823757     0.297790019210     1.300351386847
    C            2.560278748118    -0.408683331331     0.336184441016
    C            1.924308539577    -0.883252612861    -0.814337135918
    C            0.565052267379    -0.662751344020    -0.998212446823
    C           -1.612326809595     0.281123178162    -0.232041251050
    H           -0.058093335079     1.068150077570     1.894737537818
    H            2.323381932904     0.655746783139     2.199945620534
    H            3.620291314321    -0.590883692298     0.483478856987
    H            2.487416356240    -1.425250846058    -1.566820419666
    H            0.107487955103    -1.028236623145    -1.912589458343
    N           -2.380111386138    -0.442568037468    -1.107053047789
    N           -2.284476569845     1.136403274340     0.521099438493
    H           -3.270383664886     1.300080525686     0.348345043840
    H           -1.834907925160     1.718083322527     1.215145586906
    H           -3.051941697577    -1.074410605202    -0.675981839904
    H           -1.840380104625    -0.977783627330    -1.779062810743

	Cleaning optimization helper files.


Properties will be evaluated at   0.000000,   0.000000,   0.000000 Bohr

Properties computed using the  density matrix

  Nuclear Dipole Moment: (a.u.)
     X:    -1.4087      Y:    -0.3344      Z:     0.1959

  Electronic Dipole Moment: (a.u.)
     X:    -0.2685      Y:     0.4314      Z:     0.0211

  Dipole Moment: (a.u.)
     X:    -1.6773      Y:     0.0971      Z:     0.2170     Total:     1.6940

  Dipole Moment: (Debye)
     X:    -4.2632      Y:     0.2467      Z:     0.5517     Total:     4.3058

  Quadrupole Moment: (Debye Ang)
    XX:   -18.6946     YY:   -43.9616     ZZ:   -42.1571
    XY:    -4.1772     XZ:     0.2011     YZ:     9.7281

  Traceless Quadrupole Moment: (Debye Ang)
    XX:    16.2432     YY:    -9.0238     ZZ:    -7.2193
    XY:    -4.1772     XZ:     0.2011     YZ:     9.7281

  Mulliken Charges: (a.u.)
   Center  Symbol    Alpha    Beta     Spin     Total
       1     C     2.92173  2.92173  0.00000  0.15654
       2     C     3.08457  3.08457  0.00000 -0.16914
       3     C     3.06095  3.06095  0.00000 -0.12190
       4     C     3.05008  3.05008  0.00000 -0.10016
       5     C     3.06187  3.06187  0.00000 -0.12374
       6     C     3.08859  3.08859  0.00000 -0.17719
       7     C     2.75935  2.75935  0.00000  0.48131
       8     H     0.42000  0.42000  0.00000  0.16001
       9     H     0.40339  0.40339  0.00000  0.19322
      10     H     0.40096  0.40096  0.00000  0.19808
      11     H     0.40313  0.40313  0.00000  0.19374
      12     H     0.41522  0.41522  0.00000  0.16956
      13     N     3.86792  3.86792  0.00000 -0.73584
      14     N     3.85075  3.85075  0.00000 -0.70150
      15     H     0.29796  0.29796  0.00000  0.40408
      16     H     0.29910  0.29910  0.00000  0.40179
      17     H     0.30413  0.30413  0.00000  0.39175
      18     H     0.31031  0.31031  0.00000  0.37937

   Total alpha = 32.00000, Total beta = 32.00000, Total charge =  1.00000


*** Psi4 exiting successfully. Buy a developer a beer!
