
    -----------------------------------------------------------------------
          Psi4: An Open-Source Ab Initio Electronic Structure Package
                               Psi4 1.1 release

                         Git: Rev {HEAD} add49b9 


    R. M. Parrish, L. A. Burns, D. G. A. Smith, A. C. Simmonett,
    A. E. DePrince III, E. G. Hohenstein, U. Bozkaya, A. Yu. Sokolov,
    R. Di Remigio, R. M. Richard, J. F. Gonthier, A. M. James,
    H. R. McAlexander, A. Kumar, M. Saitow, X. Wang, B. P. Pritchard,
    P. Verma, H. F. Schaefer III, K. Patkowski, R. A. King, E. F. Valeev,
    F. A. Evangelista, J. M. Turney, T. D. Crawford, and C. D. Sherrill,
    J. Chem. Theory Comput. in press (2017).
    (doi: 10.1021/acs.jctc.7b00174)

    -----------------------------------------------------------------------


    Psi4 started on: Tuesday, 12 December 2017 02:33PM

    Process ID:  17273
    PSIDATADIR: /shared/raimis/opt/miniconda/share/psi4
    Memory:     500.0 MiB
    Threads:    1
    
  ==> Input File <==

--------------------------------------------------------------------------
set_num_threads(1)
set_memory(3145728000)

set { reference rks }
set { basis 6-31G* }

molecule MOL {
    1 1
    noreorient
    nocom
    symmetry c1
    C    0.000000   0.000000  -0.177864
    C    0.036678   1.219374   0.524165
    C    0.031764   1.213119   1.915444
    C   -0.000000  -0.000000   2.610107
    C   -0.031764  -1.213119   1.915444
    C   -0.036677  -1.219374   0.524165
    C    0.000000  -0.000000  -1.644734
    H    0.018170   2.164705  -0.010853
    H    0.042402   2.152895   2.457886
    H   -0.000000  -0.000000   3.695756
    H   -0.042402  -2.152895   2.457886
    H   -0.018170  -2.164705  -0.010853
    N   -0.712590  -0.905950  -2.308460
    N    0.712590   0.905950  -2.308461
    H    0.673432   1.006469  -3.315997
    H    1.377190   1.485970  -1.813317
    H   -1.537876  -0.622095  -2.819941
    H   -0.433153  -1.876868  -2.385920
}

set optking { frozen_dihedral = (" 1 7 13 17 ") }

set optking { dynamic_level = 1 
 geom_maxiter = 250
 print_trajectory_xyz_file = True }

energy, wfn = optimize('B3LYP-D3', return_wfn=True)

import os
os.chdir(os.environ['HTMD_PSI4_WORKDIR'])

oeprop(wfn, 'DIPOLE', 'QUADRUPOLE', 'MULLIKEN_CHARGES')

with open('psi4out.xyz', 'w') as f:
    f.write('18 ' )
    f.write('%.12f\n' % energy)
    f.write(MOL.save_string_xyz())
--------------------------------------------------------------------------
  Threads set to 1 by Python driver.

  Memory set to   2.930 GiB by Python driver.
gradient() will perform analytic gradient computation.

*** tstart() called on computer06
*** at Tue Dec 12 14:33:22 2017

   => Loading Basis Set <=

    Name: 6-31G*
    Role: ORBITAL
    Keyword: BASIS
    atoms 1-7         entry C          line   102 file /shared/raimis/opt/miniconda/share/psi4/basis/6-31gs.gbs 
    atoms 8-12, 15-18 entry H          line    35 file /shared/raimis/opt/miniconda/share/psi4/basis/6-31gs.gbs 
    atoms 13-14       entry N          line   119 file /shared/raimis/opt/miniconda/share/psi4/basis/6-31gs.gbs 


         ---------------------------------------------------------
                                   SCF
            by Justin Turney, Rob Parrish, and Andy Simmonett
                              RKS Reference
                        1 Threads,   3000 MiB Core
         ---------------------------------------------------------

  ==> Geometry <==

    Molecular point group: c1
    Full point group: C1

    Geometry (in Angstrom), charge = 1, multiplicity = 1:

       Center              X                  Y                   Z               Mass       
    ------------   -----------------  -----------------  -----------------  -----------------
           C          0.000000000000     0.000000000000    -0.177864000000    12.000000000000
           C          0.036678000000     1.219374000000     0.524165000000    12.000000000000
           C          0.031764000000     1.213119000000     1.915444000000    12.000000000000
           C          0.000000000000     0.000000000000     2.610107000000    12.000000000000
           C         -0.031764000000    -1.213119000000     1.915444000000    12.000000000000
           C         -0.036677000000    -1.219374000000     0.524165000000    12.000000000000
           C          0.000000000000     0.000000000000    -1.644734000000    12.000000000000
           H          0.018170000000     2.164705000000    -0.010853000000     1.007825032070
           H          0.042402000000     2.152895000000     2.457886000000     1.007825032070
           H          0.000000000000     0.000000000000     3.695756000000     1.007825032070
           H         -0.042402000000    -2.152895000000     2.457886000000     1.007825032070
           H         -0.018170000000    -2.164705000000    -0.010853000000     1.007825032070
           N         -0.712590000000    -0.905950000000    -2.308460000000    14.003074004780
           N          0.712590000000     0.905950000000    -2.308461000000    14.003074004780
           H          0.673432000000     1.006469000000    -3.315997000000     1.007825032070
           H          1.377190000000     1.485970000000    -1.813317000000     1.007825032070
           H         -1.537876000000    -0.622095000000    -2.819941000000     1.007825032070
           H         -0.433153000000    -1.876868000000    -2.385920000000     1.007825032070

  Running in c1 symmetry.

  Rotational constants: A =      0.12112  B =      0.03957  C =      0.03131 [cm^-1]
  Rotational constants: A =   3630.94358  B =   1186.35233  C =    938.76087 [MHz]
  Nuclear repulsion =  416.618116565083483

  Charge       = 1
  Multiplicity = 1
  Electrons    = 64
  Nalpha       = 32
  Nbeta        = 32

  ==> Algorithm <==

  SCF Algorithm Type is DF.
  DIIS enabled.
  MOM disabled.
  Fractional occupation disabled.
  Guess Type is SAD.
  Energy threshold   = 1.00e-08
  Density threshold  = 1.00e-08
  Integral threshold = 0.00e+00

  ==> Primary Basis <==

  Basis Set: 6-31G*
    Blend: 6-31G*
    Number of shells: 72
    Number of basis function: 153
    Number of Cartesian functions: 153
    Spherical Harmonics?: false
    Max angular momentum: 2

  ==> DFT Potential <==

   => B3LYP Composite Functional <= 

    B3LYP Hybrid-GGA Exchange-Correlation Functional (VWN1-RPA)

    P.J. Stephens et. al., J. Phys. Chem., 98, 11623-11627, 1994

    Points   =           5000
    Deriv    =              1
    GGA      =           TRUE
    Meta     =          FALSE

    X_LRC        =          FALSE
    X_Hybrid     =           TRUE
    X_Alpha      =   2.000000E-01
    X_Omega      =   0.000000E+00
    C_LRC        =          FALSE
    C_Hybrid     =          FALSE
    C_Alpha      =   0.000000E+00
    C_Omega      =   0.000000E+00

   => Exchange Functionals <=

    0.8000    B3_X
    0.2000      HF 

   => Correlation Functionals <=

    0.1900 VWN3RPA_C
    0.8100   LYP_C

   => Molecular Quadrature <=

    Radial Scheme    =       TREUTLER
    Pruning Scheme   =           FLAT
    Nuclear Scheme   =       TREUTLER

    BS radius alpha  =              1
    Pruning alpha    =              1
    Radial Points    =             75
    Spherical Points =            302
    Total Points     =         397040
    Total Blocks     =            368
    Max Points       =           4944
    Max Functions    =            151

   => -D3ZERO: Empirical Dispersion <=

    Grimme's -D3 (zero-damping) Dispersion Correction
    Grimme S.; Antony J.; Ehrlich S.; Krieg H. (2010), J. Chem. Phys., 132: 154104

        S6 =   1.000000E+00
        S8 =   1.703000E+00
       SR6 =   1.261000E+00
    ALPHA6 =   1.400000E+01

   => Loading Basis Set <=

    Name: (6-31G* AUX)
    Role: JKFIT
    Keyword: DF_BASIS_SCF
    atoms 1-7         entry C          line   120 file /shared/raimis/opt/miniconda/share/psi4/basis/cc-pvdz-jkfit.gbs 
    atoms 8-12, 15-18 entry H          line    50 file /shared/raimis/opt/miniconda/share/psi4/basis/cc-pvdz-jkfit.gbs 
    atoms 13-14       entry N          line   170 file /shared/raimis/opt/miniconda/share/psi4/basis/cc-pvdz-jkfit.gbs 

  ==> Pre-Iterations <==

   -------------------------------------------------------
    Irrep   Nso     Nmo     Nalpha   Nbeta   Ndocc  Nsocc
   -------------------------------------------------------
     A        153     153       0       0       0       0
   -------------------------------------------------------
    Total     153     153      32      32      32       0
   -------------------------------------------------------

  ==> Integral Setup <==

  ==> DFJK: Density-Fitted J/K Matrices <==

    J tasked:                  Yes
    K tasked:                  Yes
    wK tasked:                  No
    OpenMP threads:              1
    Integrals threads:           1
    Memory (MB):              2250
    Algorithm:                Core
    Integral Cache:           NONE
    Schwarz Cutoff:          1E-12
    Fitting Condition:       1E-12

   => Auxiliary Basis Set <=

  Basis Set: (6-31G* AUX)
    Blend: CC-PVDZ-JKFIT
    Number of shells: 297
    Number of basis function: 954
    Number of Cartesian functions: 954
    Spherical Harmonics?: false
    Max angular momentum: 3

  Minimum eigenvalue in the overlap matrix is 4.8586375126E-04.
  Using Symmetric Orthogonalization.

  SCF Guess: Superposition of Atomic Densities via on-the-fly atomic UHF.

  ==> Iterations <==

                           Total Energy        Delta E     RMS |[F,P]|

   @DF-RKS iter   0:  -379.37390426248629   -3.79374e+02   3.34316e-02 
   @DF-RKS iter   1:  -380.93491452081412   -1.56101e+00   6.32869e-03 
   @DF-RKS iter   2:  -380.76786236177759    1.67052e-01   7.31437e-03 DIIS
   @DF-RKS iter   3:  -381.40682693124086   -6.38965e-01   1.32820e-03 DIIS
   @DF-RKS iter   4:  -381.42318127126214   -1.63543e-02   5.87968e-04 DIIS
   @DF-RKS iter   5:  -381.42651384677197   -3.33258e-03   1.89090e-04 DIIS
   @DF-RKS iter   6:  -381.42689295809083   -3.79111e-04   6.03659e-05 DIIS
   @DF-RKS iter   7:  -381.42693798661162   -4.50285e-05   1.79059e-05 DIIS
   @DF-RKS iter   8:  -381.42694177846414   -3.79185e-06   3.12954e-06 DIIS
   @DF-RKS iter   9:  -381.42694187327174   -9.48076e-08   1.96802e-06 DIIS
   @DF-RKS iter  10:  -381.42694191696160   -4.36899e-08   2.77645e-07 DIIS
   @DF-RKS iter  11:  -381.42694191771392   -7.52323e-10   1.92975e-07 DIIS
   @DF-RKS iter  12:  -381.42694191822045   -5.06532e-10   5.27284e-08 DIIS
   @DF-RKS iter  13:  -381.42694191826320   -4.27463e-11   1.08087e-08 DIIS
   @DF-RKS iter  14:  -381.42694191826587   -2.67164e-12   5.20446e-09 DIIS

  ==> Post-Iterations <==

    Orbital Energies (a.u.)
    -----------------------

    Doubly Occupied:                                                      

       1A    -14.586199     2A    -14.518493     3A    -10.502807  
       4A    -10.372294     5A    -10.359108     6A    -10.357306  
       7A    -10.346459     8A    -10.342272     9A    -10.341732  
      10A     -1.179951    11A     -1.080740    12A     -1.015177  
      13A     -0.925917    14A     -0.903585    15A     -0.842527  
      16A     -0.778218    17A     -0.770300    18A     -0.742416  
      19A     -0.719736    20A     -0.705516    21A     -0.672988  
      22A     -0.629899    23A     -0.605898    24A     -0.587053  
      25A     -0.577771    26A     -0.558596    27A     -0.517379  
      28A     -0.508916    29A     -0.499589    30A     -0.443431  
      31A     -0.409979    32A     -0.405292  

    Virtual:                                                              

      33A     -0.253500    34A     -0.156376    35A     -0.144576  
      36A     -0.100762    37A     -0.076141    38A     -0.050026  
      39A     -0.036919    40A     -0.014681    41A      0.005743  
      42A      0.015834    43A      0.027129    44A      0.058230  
      45A      0.067806    46A      0.093281    47A      0.128935  
      48A      0.140672    49A      0.155987    50A      0.164382  
      51A      0.208435    52A      0.239743    53A      0.297455  
      54A      0.355200    55A      0.360306    56A      0.381652  
      57A      0.394805    58A      0.403237    59A      0.414116  
      60A      0.422456    61A      0.438477    62A      0.448332  
      63A      0.456387    64A      0.470110    65A      0.471993  
      66A      0.482151    67A      0.488601    68A      0.504411  
      69A      0.526028    70A      0.536919    71A      0.563573  
      72A      0.581750    73A      0.612249    74A      0.641298  
      75A      0.664813    76A      0.679892    77A      0.686878  
      78A      0.700463    79A      0.713693    80A      0.727647  
      81A      0.737221    82A      0.752952    83A      0.765646  
      84A      0.774098    85A      0.808224    86A      0.831957  
      87A      0.850236    88A      0.890898    89A      0.956099  
      90A      0.962909    91A      0.978978    92A      1.017253  
      93A      1.038649    94A      1.092564    95A      1.139789  
      96A      1.154366    97A      1.255179    98A      1.272875  
      99A      1.285196   100A      1.304101   101A      1.324196  
     102A      1.340579   103A      1.360321   104A      1.377660  
     105A      1.434005   106A      1.473789   107A      1.495903  
     108A      1.589673   109A      1.628491   110A      1.671374  
     111A      1.706634   112A      1.725039   113A      1.757353  
     114A      1.782320   115A      1.805214   116A      1.829501  
     117A      1.893914   118A      1.951835   119A      1.960933  
     120A      1.988798   121A      1.996979   122A      2.003105  
     123A      2.016402   124A      2.055586   125A      2.120684  
     126A      2.124810   127A      2.151089   128A      2.193928  
     129A      2.207786   130A      2.312853   131A      2.359443  
     132A      2.433730   133A      2.446678   134A      2.457310  
     135A      2.485793   136A      2.518073   137A      2.556608  
     138A      2.588643   139A      2.596848   140A      2.625395  
     141A      2.730802   142A      2.838781   143A      2.977926  
     144A      3.256827   145A      3.616075   146A      3.695005  
     147A      3.911138   148A      3.944614   149A      3.962743  
     150A      4.040642   151A      4.172242   152A      4.249634  
     153A      4.544164  

    Final Occupation by Irrep:
              A 
    DOCC [    32 ]

  Energy converged.

  @DF-RKS Final Energy:  -381.42694191826587

   => Energetics <=

    Nuclear Repulsion Energy =            416.6181165650834828
    One-Electron Energy =               -1328.5231643485399218
    Two-Electron Energy =                 574.9015554698162305
    DFT Exchange-Correlation Energy =     -44.4115143746257033
    Empirical Dispersion Energy =          -0.0119352300000000
    PCM Polarization Energy =               0.0000000000000000
    EFP Energy =                            0.0000000000000000
    Total Energy =                       -381.4269419182659249



Properties will be evaluated at   0.000000,   0.000000,   0.000000 Bohr

Properties computed using the SCF density matrix

  Nuclear Dipole Moment: (a.u.)
     X:     0.1504      Y:    -0.0123      Z:    -0.1199

  Electronic Dipole Moment: (a.u.)
     X:     0.1079      Y:     0.2518      Z:    -1.9744

  Dipole Moment: (a.u.)
     X:     0.2584      Y:     0.2395      Z:    -2.0943     Total:     2.1237

  Dipole Moment: (Debye)
     X:     0.6567      Y:     0.6088      Z:    -5.3231     Total:     5.3979


*** tstop() called on computer06 at Tue Dec 12 14:35:02 2017
Module time:
	user time   =      98.65 seconds =       1.64 minutes
	system time =       0.84 seconds =       0.01 minutes
	total time  =        100 seconds =       1.67 minutes
Total time:
	user time   =      98.65 seconds =       1.64 minutes
	system time =       0.84 seconds =       0.01 minutes
	total time  =        100 seconds =       1.67 minutes

*** tstart() called on computer06
*** at Tue Dec 12 14:35:02 2017


         ------------------------------------------------------------
                                   SCF GRAD                          
                          Rob Parrish, Justin Turney,                
                       Andy Simmonett, and Alex Sokolov              
         ------------------------------------------------------------

  ==> Geometry <==

    Molecular point group: c1
    Full point group: C1

    Geometry (in Angstrom), charge = 1, multiplicity = 1:

       Center              X                  Y                   Z               Mass       
    ------------   -----------------  -----------------  -----------------  -----------------
           C          0.000000000000     0.000000000000    -0.177864000000    12.000000000000
           C          0.036678000000     1.219374000000     0.524165000000    12.000000000000
           C          0.031764000000     1.213119000000     1.915444000000    12.000000000000
           C          0.000000000000     0.000000000000     2.610107000000    12.000000000000
           C         -0.031764000000    -1.213119000000     1.915444000000    12.000000000000
           C         -0.036677000000    -1.219374000000     0.524165000000    12.000000000000
           C          0.000000000000     0.000000000000    -1.644734000000    12.000000000000
           H          0.018170000000     2.164705000000    -0.010853000000     1.007825032070
           H          0.042402000000     2.152895000000     2.457886000000     1.007825032070
           H          0.000000000000     0.000000000000     3.695756000000     1.007825032070
           H         -0.042402000000    -2.152895000000     2.457886000000     1.007825032070
           H         -0.018170000000    -2.164705000000    -0.010853000000     1.007825032070
           N         -0.712590000000    -0.905950000000    -2.308460000000    14.003074004780
           N          0.712590000000     0.905950000000    -2.308461000000    14.003074004780
           H          0.673432000000     1.006469000000    -3.315997000000     1.007825032070
           H          1.377190000000     1.485970000000    -1.813317000000     1.007825032070
           H         -1.537876000000    -0.622095000000    -2.819941000000     1.007825032070
           H         -0.433153000000    -1.876868000000    -2.385920000000     1.007825032070

  Nuclear repulsion =  416.618116565083483

  ==> Basis Set <==

  Basis Set: 6-31G*
    Blend: 6-31G*
    Number of shells: 72
    Number of basis function: 153
    Number of Cartesian functions: 153
    Spherical Harmonics?: false
    Max angular momentum: 2

  ==> DFJKGrad: Density-Fitted SCF Gradients <==

    Gradient:                    1
    J tasked:                  Yes
    K tasked:                  Yes
    wK tasked:                  No
    OpenMP threads:              1
    Integrals threads:           1
    Memory (MB):              2250
    Schwarz Cutoff:          0E+00
    Fitting Condition:       1E-12

   => Auxiliary Basis Set <=

  Basis Set: (6-31G* AUX)
    Blend: CC-PVDZ-JKFIT
    Number of shells: 297
    Number of basis function: 954
    Number of Cartesian functions: 954
    Spherical Harmonics?: false
    Max angular momentum: 3

  ==> DFT Potential <==

   => B3LYP Composite Functional <= 

    B3LYP Hybrid-GGA Exchange-Correlation Functional (VWN1-RPA)

    P.J. Stephens et. al., J. Phys. Chem., 98, 11623-11627, 1994

    Points   =           5000
    Deriv    =              1
    GGA      =           TRUE
    Meta     =          FALSE

    X_LRC        =          FALSE
    X_Hybrid     =           TRUE
    X_Alpha      =   2.000000E-01
    X_Omega      =   0.000000E+00
    C_LRC        =          FALSE
    C_Hybrid     =          FALSE
    C_Alpha      =   0.000000E+00
    C_Omega      =   0.000000E+00

   => Exchange Functionals <=

    0.8000    B3_X
    0.2000      HF 

   => Correlation Functionals <=

    0.1900 VWN3RPA_C
    0.8100   LYP_C

   => Molecular Quadrature <=

    Radial Scheme    =       TREUTLER
    Pruning Scheme   =           FLAT
    Nuclear Scheme   =       TREUTLER

    BS radius alpha  =              1
    Pruning alpha    =              1
    Radial Points    =             75
    Spherical Points =            302
    Total Points     =         397040
    Total Blocks     =            368
    Max Points       =           4944
    Max Functions    =            151


  -Total Gradient:
     Atom            X                  Y                   Z
    ------   -----------------  -----------------  -----------------
       1       -0.010332894043    -0.000885938285     0.006663694045
       2       -0.003618419631    -0.001889071221    -0.003439086693
       3        0.001152754960    -0.001175307648     0.000551390853
       4       -0.000180593483    -0.000991905088    -0.000459137040
       5       -0.001080802878     0.001597488216     0.002993383685
       6        0.001775446549     0.002076088490    -0.003236224328
       7       -0.029891782965    -0.023943590330    -0.025633458931
       8       -0.000059999045    -0.000166873622    -0.000137724490
       9        0.000442839067    -0.000032317808    -0.000074340916
      10        0.000197225798    -0.000060067490    -0.000029567888
      11       -0.000093939657    -0.000017715107    -0.000000617924
      12        0.002368576839    -0.000719030113    -0.000453897196
      13        0.025894968498     0.025646088281     0.032825440374
      14        0.009183041453     0.002704830688    -0.009643758750
      15        0.000849910739     0.004500200437     0.002448596388
      16        0.002270641142    -0.007032235094    -0.001682671980
      17       -0.003108944141     0.001341227727     0.006587045789
      18        0.004231293135    -0.000953097677    -0.007280496827


*** tstop() called on computer06 at Tue Dec 12 14:35:24 2017
Module time:
	user time   =      21.78 seconds =       0.36 minutes
	system time =       0.38 seconds =       0.01 minutes
	total time  =         22 seconds =       0.37 minutes
Total time:
	user time   =     120.43 seconds =       2.01 minutes
	system time =       1.22 seconds =       0.02 minutes
	total time  =        122 seconds =       2.03 minutes

			-----------------------------------------
			 OPTKING 2.0: for geometry optimizations 
			  - R.A. King,  Bethel University        
			-----------------------------------------
	At level 1: Red. Int., RFO, no backsteps, dynamic trust

	Internal coordinates to be generated automatically.
	Detected frag 1 with atoms:  1 2 3 4 5 6 7 8 9 10 11 12 13 14 15 16 17 18
	---Fragment 1 Bond Connectivity---
	 1 : 2 6 7
	 2 : 1 3 8
	 3 : 2 4 9
	 4 : 3 5 10
	 5 : 4 6 11
	 6 : 1 5 12
	 7 : 1 13 14
	 8 : 2
	 9 : 3
	 10 : 4
	 11 : 5
	 12 : 6
	 13 : 7 17 18
	 14 : 7 15 16
	 15 : 14
	 16 : 14
	 17 : 13
	 18 : 13

	Assuming in current code that numbering for constraints corresponds to unified fragment.
	Frozen dihedral atom list: 
	     1     7    13    17
	---Fragment 1 Geometry and Gradient---
	 C           0.0000000000        0.0000000000       -0.3361142489
	 C           0.0693113751        2.3042829136        0.9905282984
	 C           0.0600252609        2.2924626766        3.6196645829
	 C           0.0000000000        0.0000000000        4.9323874075
	 C          -0.0600252609       -2.2924626766        3.6196645829
	 C          -0.0693094854       -2.3042829136        0.9905282984
	 C           0.0000000000        0.0000000000       -3.1080968214
	 H           0.0343363238        4.0906996085       -0.0205091977
	 H           0.0801281675        4.0683819429        4.6447314059
	 H           0.0000000000        0.0000000000        6.9839666940
	 H          -0.0801281675       -4.0683819429        4.6447314059
	 H          -0.0343363238       -4.0906996085       -0.0205091977
	 N          -1.3465999450       -1.7119973901       -4.3623571887
	 N           1.3465999450        1.7119973901       -4.3623590784
	 H           1.2726020491        1.9019507712       -6.2663261875
	 H           2.6025119329        2.8080763417       -3.4266725221
	 H          -2.9061644663       -1.1755891786       -5.3289162009
	 H          -0.8185405436       -3.5467665076       -4.5087353750
	            -0.0103328940       -0.0008859383        0.0066636940
	            -0.0036184196       -0.0018890712       -0.0034390867
	             0.0011527550       -0.0011753076        0.0005513909
	            -0.0001805935       -0.0009919051       -0.0004591370
	            -0.0010808029        0.0015974882        0.0029933837
	             0.0017754465        0.0020760885       -0.0032362243
	            -0.0298917830       -0.0239435903       -0.0256334589
	            -0.0000599990       -0.0001668736       -0.0001377245
	             0.0004428391       -0.0000323178       -0.0000743409
	             0.0001972258       -0.0000600675       -0.0000295679
	            -0.0000939397       -0.0000177151       -0.0000006179
	             0.0023685768       -0.0007190301       -0.0004538972
	             0.0258949685        0.0256460883        0.0328254404
	             0.0091830415        0.0027048307       -0.0096437588
	             0.0008499107        0.0045002004        0.0024485964
	             0.0022706411       -0.0070322351       -0.0016826720
	            -0.0031089441        0.0013412277        0.0065870458
	             0.0042312931       -0.0009530977       -0.0072804968

	Previous optimization step data not found.  Starting new optimization.

	---Fragment 1 Intrafragment Coordinates---
	 - Coordinate -           - BOHR/RAD -       - ANG/DEG -
	 R(1,2)           =         2.659794	       1.407502
	 R(1,6)           =         2.659794	       1.407502
	 R(1,7)           =         2.771983	       1.466870
	 R(2,3)           =         2.629179	       1.391302
	 R(2,8)           =         2.052975	       1.086387
	 R(3,4)           =         2.642391	       1.398293
	 R(3,9)           =         2.050623	       1.085143
	 R(4,5)           =         2.642391	       1.398293
	 R(4,10)          =         2.051579	       1.085649
	 R(5,6)           =         2.629179	       1.391302
	 R(5,11)          =         2.050623	       1.085143
	 R(6,12)          =         2.052975	       1.086387
	 R(7,13)          =         2.513451	       1.330061
	 R(7,14)          =         2.513452	       1.330061
	 R(13,17)         =         1.911599	       1.011575
	 R(13,18)         =         1.914850	       1.013295
	 R(14,15)         =         1.914850	       1.013295
	 R(14,16)         =         1.911600	       1.011575
	 B(1,2,3)         =         2.088380	     119.655334
	 B(1,2,8)         =         2.103396	     120.515735
	 B(1,6,5)         =         2.088380	     119.655336
	 B(1,6,12)        =         2.103396	     120.515739
	 B(1,7,13)        =         2.093263	     119.935135
	 B(1,7,14)        =         2.093264	     119.935172
	 B(2,1,6)         =         2.097220	     120.161836
	 B(2,1,7)         =         2.092983	     119.919082
	 B(2,3,4)         =         2.095280	     120.050699
	 B(2,3,9)         =         2.089718	     119.732039
	 B(3,2,8)         =         2.090149	     119.756716
	 B(3,4,5)         =         2.101792	     120.423818
	 B(3,4,10)        =         2.090697	     119.788091
	 B(4,3,9)         =         2.098135	     120.214304
	 B(4,5,6)         =         2.095280	     120.050698
	 B(4,5,11)        =         2.098135	     120.214304
	 B(5,4,10)        =         2.090697	     119.788091
	 B(5,6,12)        =         2.090149	     119.756718
	 B(6,1,7)         =         2.092983	     119.919082
	 B(6,5,11)        =         2.089718	     119.732040
	 B(7,13,17)       =         2.092411	     119.886345
	 B(7,13,18)       =         2.144860	     122.891452
	 B(7,14,15)       =         2.144860	     122.891403
	 B(7,14,16)       =         2.092412	     119.886356
	 B(13,7,14)       =         2.096659	     120.129694
	 B(15,14,16)      =         2.043400	     117.078183
	 B(17,13,18)      =         2.043399	     117.078135
	 D(1,2,3,4)       =         0.007800	       0.446917
	 D(1,2,3,9)       =        -3.122897	    -178.928796
	 D(1,6,5,4)       =         0.007799	       0.446823
	 D(1,6,5,11)      =        -3.122897	    -178.928843
	*D(1,7,13,17)     =         1.919863	     110.000044
	 D(1,7,13,18)     =        -1.300149	     -74.493050
	 D(1,7,14,15)     =        -3.032165	    -173.730265
	 D(1,7,14,16)     =         0.187844	      10.762677
	 D(2,1,6,5)       =        -0.003905	      -0.223756
	 D(2,1,6,12)      =        -3.091438	    -177.126344
	 D(2,1,7,13)      =        -2.505167	    -143.535494
	 D(2,1,7,14)      =         0.636426	      36.464506
	 D(2,3,4,5)       =        -0.003943	      -0.225922
	 D(2,3,4,10)      =         3.137650	     179.774078
	 D(3,2,1,6)       =        -0.003908	      -0.223897
	 D(3,2,1,7)       =         3.137686	     179.776150
	 D(3,4,5,6)       =        -0.003942	      -0.225875
	 D(3,4,5,11)      =         3.126701	     179.146753
	 D(4,3,2,8)       =         3.095745	     177.373103
	 D(4,5,6,12)      =         3.095746	     177.373164
	 D(5,4,3,9)       =         3.126701	     179.146753
	 D(5,6,1,7)       =         3.137687	     179.776197
	 D(6,1,2,8)       =        -3.091438	    -177.126330
	 D(6,1,7,13)      =         0.636427	      36.464553
	 D(6,1,7,14)      =        -2.505166	    -143.535447
	 D(6,5,4,10)      =         3.137650	     179.774125
	 D(7,1,2,8)       =         0.050156	       2.873717
	 D(7,1,6,12)      =         0.050154	       2.873609
	 D(8,2,3,9)       =        -0.034952	      -2.002610
	 D(9,3,4,10)      =        -0.014892	      -0.853247
	 D(10,4,5,11)     =        -0.014892	      -0.853247
	 D(11,5,6,12)     =        -0.034950	      -2.002502
	 D(13,7,14,15)    =         0.109428	       6.269735
	 D(13,7,14,16)    =        -2.953749	    -169.237323
	 D(14,7,13,17)    =        -1.221730	     -69.999956
	 D(14,7,13,18)    =         1.841444	     105.506950

	Current energy   :      -381.4269419183

	Generating empirical Hessian (Schlegel '84) for each fragment.
	Taking RFO optimization step.
	Going to follow RFO solution 1.
	Using RFO vector 1.

	Determining step-restricting scale parameter for RS-RFO.
	Maximum step size allowed    0.50000

	 Iter      |step|        alpha        rfo_root  
	------------------------------------------------
	    0     0.53513       1.00000           1
	    1     0.50315       1.18484           1
	    2     0.50003       1.20482           1
	    3     0.50000       1.20501           1
	------------------------------------------------
	Norm of target step-size    0.50000
	Projected energy change by RFO approximation:        -0.0063018233

	Back-transformation to cartesian coordinates...
	Could not converge backtransformation.
	Using first guess instead.

	Back-transformation to cartesian coordinates to adjust frozen coordinates...
	Successfully converged to displaced geometry.

	--- Internal Coordinate Step in ANG or DEG, aJ/ANG or AJ/DEG ---
	 ---------------------------------------------------------------------------
	   Coordinate                Previous        Force       Change         New 
	   ----------                --------       ------       ------       ------
	    1 R(1,2)          =      1.407502     0.031345     0.005741     1.413244
	    2 R(1,6)          =      1.407502     0.016738     0.004782     1.412284
	    3 R(1,7)          =      1.466870    -0.019598    -0.003282     1.463588
	    4 R(2,3)          =      1.391302    -0.006854    -0.000514     1.390787
	    5 R(2,8)          =      1.086387     0.000631     0.001461     1.087848
	    6 R(3,4)          =      1.398293     0.002250     0.001734     1.400027
	    7 R(3,9)          =      1.085143     0.000502     0.000584     1.085727
	    8 R(4,5)          =      1.398293     0.014674     0.002892     1.401185
	    9 R(4,10)         =      1.085649     0.000243     0.000226     1.085875
	   10 R(5,6)          =      1.391302    -0.017694    -0.002351     1.388951
	   11 R(5,11)         =      1.085143    -0.000133     0.001815     1.086958
	   12 R(6,12)         =      1.086387    -0.007330     0.001776     1.088164
	   13 R(7,13)         =      1.330061     0.397463     0.043890     1.373951
	   14 R(7,14)         =      1.330061    -0.091785    -0.000660     1.329401
	   15 R(13,17)        =      1.011575     0.003441     0.001598     1.013173
	   16 R(13,18)        =      1.013295    -0.021717     0.000044     1.013339
	   17 R(14,15)        =      1.013295     0.016654     0.002616     1.015911
	   18 R(14,16)        =      1.011575     0.027709     0.025848     1.037423
	   19 B(1,2,3)        =    119.655334     0.000035     0.047908   119.703241
	   20 B(1,2,8)        =    120.515735    -0.000003     0.045862   120.561597
	   21 B(1,6,5)        =    119.655336     0.000018     0.012734   119.668069
	   22 B(1,6,12)       =    120.515739    -0.000002     0.158971   120.674709
	   23 B(1,7,13)       =    119.935135     0.000997     2.737201   122.672336
	   24 B(1,7,14)       =    119.935172    -0.000518    -1.726324   118.208848
	   25 B(2,1,6)        =    120.161836    -0.000086    -0.143216   120.018620
	   26 B(2,1,7)        =    119.919082     0.000073     0.165545   120.084627
	   27 B(2,3,4)        =    120.050699    -0.000036    -0.098783   119.951915
	   28 B(2,3,9)        =    119.732039     0.000022     0.018676   119.750716
	   29 B(3,2,8)        =    119.756716    -0.000034    -0.135929   119.620787
	   30 B(3,4,5)        =    120.423818     0.000039     0.137609   120.561426
	   31 B(3,4,10)       =    119.788091    -0.000024    -0.047586   119.740505
	   32 B(4,3,9)        =    120.214304     0.000014     0.082024   120.296328
	   33 B(4,5,6)        =    120.050698     0.000029     0.017959   120.068657
	   34 B(4,5,11)       =    120.214304    -0.000015     0.043529   120.257832
	   35 B(5,4,10)       =    119.788091    -0.000015    -0.092644   119.695447
	   36 B(5,6,12)       =    119.756718    -0.000013    -0.123804   119.632914
	   37 B(6,1,7)        =    119.919082     0.000012    -0.029384   119.889698
	   38 B(6,5,11)       =    119.732040    -0.000014    -0.060493   119.671546
	   39 B(7,13,17)      =    119.886345     0.000302     1.448706   121.335051
	   40 B(7,13,18)      =    122.891452    -0.000190    -1.091515   121.799938
	   41 B(7,14,15)      =    122.891403    -0.000447    -2.108442   120.782960
	   42 B(7,14,16)      =    119.886356     0.000320     2.076765   121.963121
	   43 B(13,7,14)      =    120.129694    -0.000478    -1.227035   118.902658
	   44 B(15,14,16)     =    117.078183     0.000143     0.171723   117.249906
	   45 B(17,13,18)     =    117.078135    -0.000089    -0.265182   116.812953
	   46 D(1,2,3,4)      =      0.446917     0.000011     1.061567     1.508484
	   47 D(1,2,3,9)      =   -178.928796     0.000009     0.807383  -178.121413
	   48 D(1,6,5,4)      =      0.446823     0.000012     1.122630     1.569453
	   49 D(1,6,5,11)     =   -178.928843    -0.000000    -0.010190  -178.939032
	   50 *D(1,7,13,17)   =    110.000044     0.000000    -0.000000   110.000044
	   51 D(1,7,13,18)    =    -74.493050     0.000085     7.201205   -67.291846
	   52 D(1,7,14,15)    =   -173.730265    -0.000009    -0.444518  -174.174783
	   53 D(1,7,14,16)    =     10.762677    -0.000068    -5.686420     5.076257
	   54 D(2,1,6,5)      =     -0.223756    -0.000008    -0.832036    -1.055792
	   55 D(2,1,6,12)     =   -177.126344    -0.000022    -2.129557  -179.255901
	   56 D(2,1,7,13)     =   -143.535494    -0.000031    -5.045856  -148.581350
	   57 D(2,1,7,14)     =     36.464506    -0.000087   -10.451762    26.012744
	   58 D(2,3,4,5)      =     -0.225922    -0.000008    -0.778748    -1.004671
	   59 D(2,3,4,10)     =    179.774078    -0.000002    -0.187930   179.586147
	   60 D(3,2,1,6)      =     -0.223897    -0.000003    -0.264756    -0.488653
	   61 D(3,2,1,7)      =    179.776150    -0.000013    -1.232056   178.544094
	   62 D(3,4,5,6)      =     -0.225875    -0.000004    -0.327977    -0.553851
	   63 D(3,4,5,11)     =    179.146753     0.000008     0.810890   179.957643
	   64 D(4,3,2,8)      =    177.373103     0.000003     0.269758   177.642861
	   65 D(4,5,6,12)     =    177.373164     0.000025     2.415317   179.788480
	   66 D(5,4,3,9)      =    179.146753    -0.000005    -0.523569   178.623184
	   67 D(5,6,1,7)      =    179.776197     0.000001     0.133366   179.909563
	   68 D(6,1,2,8)      =   -177.126330     0.000005     0.540315  -176.586015
	   69 D(6,1,7,13)     =     36.464553    -0.000040    -6.011902    30.452651
	   70 D(6,1,7,14)     =   -143.535447    -0.000096   -11.417808  -154.953255
	   71 D(6,5,4,10)     =    179.774125    -0.000010    -0.918530   178.855596
	   72 D(7,1,2,8)      =      2.873717    -0.000004    -0.426984     2.446733
	   73 D(7,1,6,12)     =      2.873609    -0.000013    -1.164154     1.709454
	   74 D(8,2,3,9)      =     -2.002610     0.000000     0.015574    -1.987036
	   75 D(9,3,4,10)     =     -0.853247     0.000001     0.067249    -0.785998
	   76 D(10,4,5,11)    =     -0.853247     0.000002     0.220337    -0.632910
	   77 D(11,5,6,12)    =     -2.002502     0.000013     1.282497    -0.720005
	   78 D(13,7,14,15)   =      6.269735    -0.000065    -5.641922     0.627813
	   79 D(13,7,14,16)   =   -169.237323    -0.000124   -10.883824  -180.121148
	   80 D(14,7,13,17)   =    -69.999956     0.000056     5.441757   -64.558199
	   81 D(14,7,13,18)   =    105.506950     0.000141    12.642962   118.149911
	 ---------------------------------------------------------------------------
	Successfully symmetrized geometry.

  ==> Convergence Check <==

  Measures of convergence in internal coordinates in au.
  Criteria marked as inactive (o), active & met (*), and active & unmet ( ).
  --------------------------------------------------------------------------------------------- ~
   Step     Total Energy     Delta E     MAX Force     RMS Force      MAX Disp      RMS Disp    ~
  --------------------------------------------------------------------------------------------- ~
    Convergence Criteria    1.00e-06 *    3.00e-04 *             o    1.20e-03 *             o  ~
  --------------------------------------------------------------------------------------------- ~
      1    -381.42694192   -3.81e+02      4.82e-02      6.18e-03 o    2.21e-01      5.50e-02 o  ~
  ---------------------------------------------------------------------------------------------

	Writing optimization data to binary file.
	Structure for next step:
	Cartesian Geometry (in Angstrom)
	    C     0.0381603235  -0.0185263649  -0.1771987336
	    C     0.1339500000   1.2066639534   0.5206484947
	    C     0.1013992327   1.2121860890   1.9110438531
	    C     0.0060150106   0.0044960867   2.6127999222
	    C    -0.0784027152  -1.2138678116   1.9259365274
	    C    -0.0795757199  -1.2311556936   0.5370940919
	    C     0.0394638096  -0.0313008945  -1.6407303403
	    H     0.1692880497   2.1499335074  -0.0200990853
	    H     0.1441216353   2.1553171907   2.4472177511
	    H    -0.0123446799   0.0123501994   3.6984916319
	    H    -0.1515930181  -2.1486548286   2.4757501961
	    H    -0.1419295601  -2.1815948642   0.0109026632
	    N    -0.6387167650  -0.9741144770  -2.3748389863
	    N     0.6352275951   0.9722220752  -2.2773737085
	    H     0.5840940025   1.0495341667  -3.2890474509
	    H     1.1582711344   1.7108794513  -1.7703648199
	    H    -1.4631701376  -0.7311997938  -2.9112977187
	    H    -0.3646641976  -1.9496919917  -2.3744812881
			--------------------------
			 OPTKING Finished Execution 
			--------------------------

    Structure for next step:
    Molecular point group: c1
    Full point group: C1

    Geometry (in Angstrom), charge = 1, multiplicity = 1:

    C            0.038160323481    -0.018526364898    -0.177198733590
    C            0.133949999994     1.206663953352     0.520648494729
    C            0.101399232741     1.212186089012     1.911043853136
    C            0.006015010553     0.004496086741     2.612799922157
    C           -0.078402715232    -1.213867811568     1.925936527360
    C           -0.079575719854    -1.231155693576     0.537094091923
    C            0.039463809648    -0.031300894530    -1.640730340272
    H            0.169288049695     2.149933507436    -0.020099085299
    H            0.144121635262     2.155317190731     2.447217751133
    H           -0.012344679891     0.012350199431     3.698491631908
    H           -0.151593018150    -2.148654828602     2.475750196063
    H           -0.141929560130    -2.181594864157     0.010902663215
    N           -0.638716765037    -0.974114476982    -2.374838986338
    N            0.635227595135     0.972222075155    -2.277373708530
    H            0.584094002515     1.049534166679    -3.289047450910
    H            1.158271134402     1.710879451322    -1.770364819898
    H           -1.463170137558    -0.731199793808    -2.911297718737
    H           -0.364664197576    -1.949691991738    -2.374481288050

gradient() will perform analytic gradient computation.

*** tstart() called on computer06
*** at Tue Dec 12 14:35:25 2017

   => Loading Basis Set <=

    Name: 6-31G*
    Role: ORBITAL
    Keyword: BASIS
    atoms 1-7         entry C          line   102 file /shared/raimis/opt/miniconda/share/psi4/basis/6-31gs.gbs 
    atoms 8-12, 15-18 entry H          line    35 file /shared/raimis/opt/miniconda/share/psi4/basis/6-31gs.gbs 
    atoms 13-14       entry N          line   119 file /shared/raimis/opt/miniconda/share/psi4/basis/6-31gs.gbs 


         ---------------------------------------------------------
                                   SCF
            by Justin Turney, Rob Parrish, and Andy Simmonett
                              RKS Reference
                        1 Threads,   3000 MiB Core
         ---------------------------------------------------------

  ==> Geometry <==

    Molecular point group: c1
    Full point group: C1

    Geometry (in Angstrom), charge = 1, multiplicity = 1:

       Center              X                  Y                   Z               Mass       
    ------------   -----------------  -----------------  -----------------  -----------------
           C          0.038160323481    -0.018526364898    -0.177198733590    12.000000000000
           C          0.133949999994     1.206663953352     0.520648494729    12.000000000000
           C          0.101399232741     1.212186089012     1.911043853136    12.000000000000
           C          0.006015010553     0.004496086741     2.612799922157    12.000000000000
           C         -0.078402715232    -1.213867811568     1.925936527360    12.000000000000
           C         -0.079575719854    -1.231155693576     0.537094091923    12.000000000000
           C          0.039463809648    -0.031300894530    -1.640730340272    12.000000000000
           H          0.169288049695     2.149933507436    -0.020099085299     1.007825032070
           H          0.144121635262     2.155317190731     2.447217751133     1.007825032070
           H         -0.012344679891     0.012350199431     3.698491631908     1.007825032070
           H         -0.151593018150    -2.148654828602     2.475750196063     1.007825032070
           H         -0.141929560130    -2.181594864157     0.010902663215     1.007825032070
           N         -0.638716765037    -0.974114476982    -2.374838986338    14.003074004780
           N          0.635227595135     0.972222075155    -2.277373708530    14.003074004780
           H          0.584094002515     1.049534166679    -3.289047450910     1.007825032070
           H          1.158271134402     1.710879451322    -1.770364819898     1.007825032070
           H         -1.463170137558    -0.731199793808    -2.911297718737     1.007825032070
           H         -0.364664197576    -1.949691991738    -2.374481288050     1.007825032070

  Running in c1 symmetry.

  Rotational constants: A =      0.11983  B =      0.03972  C =      0.03079 [cm^-1]
  Rotational constants: A =   3592.42392  B =   1190.89289  C =    923.17496 [MHz]
  Nuclear repulsion =  415.142659836621021

  Charge       = 1
  Multiplicity = 1
  Electrons    = 64
  Nalpha       = 32
  Nbeta        = 32

  ==> Algorithm <==

  SCF Algorithm Type is DF.
  DIIS enabled.
  MOM disabled.
  Fractional occupation disabled.
  Guess Type is READ.
  Energy threshold   = 1.00e-08
  Density threshold  = 1.00e-08
  Integral threshold = 0.00e+00

  ==> Primary Basis <==

  Basis Set: 6-31G*
    Blend: 6-31G*
    Number of shells: 72
    Number of basis function: 153
    Number of Cartesian functions: 153
    Spherical Harmonics?: false
    Max angular momentum: 2

  ==> DFT Potential <==

   => B3LYP Composite Functional <= 

    B3LYP Hybrid-GGA Exchange-Correlation Functional (VWN1-RPA)

    P.J. Stephens et. al., J. Phys. Chem., 98, 11623-11627, 1994

    Points   =           5000
    Deriv    =              1
    GGA      =           TRUE
    Meta     =          FALSE

    X_LRC        =          FALSE
    X_Hybrid     =           TRUE
    X_Alpha      =   2.000000E-01
    X_Omega      =   0.000000E+00
    C_LRC        =          FALSE
    C_Hybrid     =          FALSE
    C_Alpha      =   0.000000E+00
    C_Omega      =   0.000000E+00

   => Exchange Functionals <=

    0.8000    B3_X
    0.2000      HF 

   => Correlation Functionals <=

    0.1900 VWN3RPA_C
    0.8100   LYP_C

   => Molecular Quadrature <=

    Radial Scheme    =       TREUTLER
    Pruning Scheme   =           FLAT
    Nuclear Scheme   =       TREUTLER

    BS radius alpha  =              1
    Pruning alpha    =              1
    Radial Points    =             75
    Spherical Points =            302
    Total Points     =         396923
    Total Blocks     =            364
    Max Points       =           4975
    Max Functions    =            151

   => -D3ZERO: Empirical Dispersion <=

    Grimme's -D3 (zero-damping) Dispersion Correction
    Grimme S.; Antony J.; Ehrlich S.; Krieg H. (2010), J. Chem. Phys., 132: 154104

        S6 =   1.000000E+00
        S8 =   1.703000E+00
       SR6 =   1.261000E+00
    ALPHA6 =   1.400000E+01

   => Loading Basis Set <=

    Name: (6-31G* AUX)
    Role: JKFIT
    Keyword: DF_BASIS_SCF
    atoms 1-7         entry C          line   120 file /shared/raimis/opt/miniconda/share/psi4/basis/cc-pvdz-jkfit.gbs 
    atoms 8-12, 15-18 entry H          line    50 file /shared/raimis/opt/miniconda/share/psi4/basis/cc-pvdz-jkfit.gbs 
    atoms 13-14       entry N          line   170 file /shared/raimis/opt/miniconda/share/psi4/basis/cc-pvdz-jkfit.gbs 

  Reading orbitals from file 180, no projection.

  ==> Pre-Iterations <==

   -------------------------------------------------------
    Irrep   Nso     Nmo     Nalpha   Nbeta   Ndocc  Nsocc
   -------------------------------------------------------
     A        153     153       0       0       0       0
   -------------------------------------------------------
    Total     153     153      32      32      32       0
   -------------------------------------------------------

  ==> Integral Setup <==

  ==> DFJK: Density-Fitted J/K Matrices <==

    J tasked:                  Yes
    K tasked:                  Yes
    wK tasked:                  No
    OpenMP threads:              1
    Integrals threads:           1
    Memory (MB):              2250
    Algorithm:                Core
    Integral Cache:           NONE
    Schwarz Cutoff:          1E-12
    Fitting Condition:       1E-12

   => Auxiliary Basis Set <=

  Basis Set: (6-31G* AUX)
    Blend: CC-PVDZ-JKFIT
    Number of shells: 297
    Number of basis function: 954
    Number of Cartesian functions: 954
    Spherical Harmonics?: false
    Max angular momentum: 3

  Minimum eigenvalue in the overlap matrix is 4.9133635389E-04.
  Using Symmetric Orthogonalization.

  SCF Guess: Orbitals guess was supplied from a previous computation.

  ==> Iterations <==

                           Total Energy        Delta E     RMS |[F,P]|

   @DF-RKS iter   0:  -381.36484255950495   -3.81365e+02   1.77606e-03 
   @DF-RKS iter   1:  -381.43368076753336   -6.88382e-02   2.92000e-04 
   @DF-RKS iter   2:  -381.43243500860842    1.24576e-03   4.45849e-04 DIIS
   @DF-RKS iter   3:  -381.43494921529174   -2.51421e-03   7.21629e-05 DIIS
   @DF-RKS iter   4:  -381.43500132906183   -5.21138e-05   3.09415e-05 DIIS
   @DF-RKS iter   5:  -381.43501272739007   -1.13983e-05   1.13490e-05 DIIS
   @DF-RKS iter   6:  -381.43501429853399   -1.57114e-06   3.94617e-06 DIIS
   @DF-RKS iter   7:  -381.43501446681967   -1.68286e-07   1.35282e-06 DIIS
   @DF-RKS iter   8:  -381.43501448806410   -2.12444e-08   3.69247e-07 DIIS
   @DF-RKS iter   9:  -381.43501448958131   -1.51721e-09   1.31017e-07 DIIS
   @DF-RKS iter  10:  -381.43501448977582   -1.94518e-10   5.97773e-08 DIIS
   @DF-RKS iter  11:  -381.43501448982329   -4.74643e-11   1.97122e-08 DIIS
   @DF-RKS iter  12:  -381.43501448982823   -4.94538e-12   4.41088e-09 DIIS

  ==> Post-Iterations <==

    Orbital Energies (a.u.)
    -----------------------

    Doubly Occupied:                                                      

       1A    -14.585039     2A    -14.526405     3A    -10.503397  
       4A    -10.375494     5A    -10.363158     6A    -10.359387  
       7A    -10.349263     8A    -10.345218     9A    -10.343361  
      10A     -1.172276    11A     -1.071112    12A     -1.016018  
      13A     -0.926896    14A     -0.905909    15A     -0.841857  
      16A     -0.777954    17A     -0.769643    18A     -0.736547  
      19A     -0.717848    20A     -0.698244    21A     -0.668877  
      22A     -0.632458    23A     -0.606118    24A     -0.586860  
      25A     -0.580138    26A     -0.564500    27A     -0.516477  
      28A     -0.511030    29A     -0.501454    30A     -0.446769  
      31A     -0.411271    32A     -0.408164  

    Virtual:                                                              

      33A     -0.250602    34A     -0.157743    35A     -0.141658  
      36A     -0.106785    37A     -0.077726    38A     -0.058296  
      39A     -0.036885    40A     -0.016123    41A      0.006102  
      42A      0.018883    43A      0.025869    44A      0.059464  
      45A      0.067081    46A      0.086625    47A      0.122076  
      48A      0.125322    49A      0.153004    50A      0.171786  
      51A      0.210220    52A      0.230307    53A      0.296488  
      54A      0.350375    55A      0.365441    56A      0.378741  
      57A      0.391063    58A      0.400993    59A      0.414107  
      60A      0.419580    61A      0.434668    62A      0.445892  
      63A      0.455342    64A      0.468267    65A      0.470516  
      66A      0.479772    67A      0.482771    68A      0.496328  
      69A      0.525105    70A      0.549216    71A      0.561711  
      72A      0.582021    73A      0.613503    74A      0.637051  
      75A      0.666725    76A      0.679993    77A      0.693326  
      78A      0.699102    79A      0.714153    80A      0.727441  
      81A      0.738636    82A      0.754822    83A      0.772246  
      84A      0.788142    85A      0.815310    86A      0.833727  
      87A      0.851846    88A      0.900838    89A      0.953966  
      90A      0.966122    91A      0.996249    92A      1.022247  
      93A      1.053535    94A      1.088741    95A      1.129014  
      96A      1.145667    97A      1.240278    98A      1.270435  
      99A      1.283660   100A      1.300278   101A      1.323122  
     102A      1.336335   103A      1.355517   104A      1.371015  
     105A      1.415711   106A      1.451747   107A      1.524667  
     108A      1.575191   109A      1.616909   110A      1.647342  
     111A      1.710380   112A      1.724754   113A      1.744573  
     114A      1.781377   115A      1.796945   116A      1.820991  
     117A      1.890092   118A      1.939921   119A      1.960405  
     120A      1.974736   121A      1.995072   122A      1.999895  
     123A      2.017380   124A      2.034443   125A      2.115136  
     126A      2.119178   127A      2.148633   128A      2.180894  
     129A      2.195126   130A      2.300848   131A      2.336774  
     132A      2.416569   133A      2.439701   134A      2.455632  
     135A      2.477161   136A      2.505834   137A      2.537038  
     138A      2.587473   139A      2.593450   140A      2.618429  
     141A      2.729148   142A      2.812291   143A      2.981107  
     144A      3.247885   145A      3.612494   146A      3.672286  
     147A      3.904594   148A      3.940731   149A      3.960390  
     150A      4.035960   151A      4.167166   152A      4.248787  
     153A      4.540632  

    Final Occupation by Irrep:
              A 
    DOCC [    32 ]

  Energy converged.

  @DF-RKS Final Energy:  -381.43501448982823

   => Energetics <=

    Nuclear Repulsion Energy =            415.1426598366210214
    One-Electron Energy =               -1325.5905137790473418
    Two-Electron Energy =                 573.3996354130097188
    DFT Exchange-Correlation Energy =     -44.3750611004116493
    Empirical Dispersion Energy =          -0.0117348600000000
    PCM Polarization Energy =               0.0000000000000000
    EFP Energy =                            0.0000000000000000
    Total Energy =                       -381.4350144898281769



Properties will be evaluated at   0.000000,   0.000000,   0.000000 Bohr

Properties computed using the SCF density matrix

  Nuclear Dipole Moment: (a.u.)
     X:     1.6322      Y:    -0.7094      Z:    -0.3040

  Electronic Dipole Moment: (a.u.)
     X:    -1.5021      Y:     0.9746      Z:    -1.6728

  Dipole Moment: (a.u.)
     X:     0.1301      Y:     0.2652      Z:    -1.9767     Total:     1.9987

  Dipole Moment: (Debye)
     X:     0.3307      Y:     0.6741      Z:    -5.0243     Total:     5.0801


*** tstop() called on computer06 at Tue Dec 12 14:36:53 2017
Module time:
	user time   =      87.27 seconds =       1.45 minutes
	system time =       0.59 seconds =       0.01 minutes
	total time  =         88 seconds =       1.47 minutes
Total time:
	user time   =     207.78 seconds =       3.46 minutes
	system time =       1.83 seconds =       0.03 minutes
	total time  =        211 seconds =       3.52 minutes

*** tstart() called on computer06
*** at Tue Dec 12 14:36:53 2017


         ------------------------------------------------------------
                                   SCF GRAD                          
                          Rob Parrish, Justin Turney,                
                       Andy Simmonett, and Alex Sokolov              
         ------------------------------------------------------------

  ==> Geometry <==

    Molecular point group: c1
    Full point group: C1

    Geometry (in Angstrom), charge = 1, multiplicity = 1:

       Center              X                  Y                   Z               Mass       
    ------------   -----------------  -----------------  -----------------  -----------------
           C          0.038160323481    -0.018526364898    -0.177198733590    12.000000000000
           C          0.133949999994     1.206663953352     0.520648494729    12.000000000000
           C          0.101399232741     1.212186089012     1.911043853136    12.000000000000
           C          0.006015010553     0.004496086741     2.612799922157    12.000000000000
           C         -0.078402715232    -1.213867811568     1.925936527360    12.000000000000
           C         -0.079575719854    -1.231155693576     0.537094091923    12.000000000000
           C          0.039463809648    -0.031300894530    -1.640730340272    12.000000000000
           H          0.169288049695     2.149933507436    -0.020099085299     1.007825032070
           H          0.144121635262     2.155317190731     2.447217751133     1.007825032070
           H         -0.012344679891     0.012350199431     3.698491631908     1.007825032070
           H         -0.151593018150    -2.148654828602     2.475750196063     1.007825032070
           H         -0.141929560130    -2.181594864157     0.010902663215     1.007825032070
           N         -0.638716765037    -0.974114476982    -2.374838986338    14.003074004780
           N          0.635227595135     0.972222075155    -2.277373708530    14.003074004780
           H          0.584094002515     1.049534166679    -3.289047450910     1.007825032070
           H          1.158271134402     1.710879451322    -1.770364819898     1.007825032070
           H         -1.463170137558    -0.731199793808    -2.911297718737     1.007825032070
           H         -0.364664197576    -1.949691991738    -2.374481288050     1.007825032070

  Nuclear repulsion =  415.142659836621021

  ==> Basis Set <==

  Basis Set: 6-31G*
    Blend: 6-31G*
    Number of shells: 72
    Number of basis function: 153
    Number of Cartesian functions: 153
    Spherical Harmonics?: false
    Max angular momentum: 2

  ==> DFJKGrad: Density-Fitted SCF Gradients <==

    Gradient:                    1
    J tasked:                  Yes
    K tasked:                  Yes
    wK tasked:                  No
    OpenMP threads:              1
    Integrals threads:           1
    Memory (MB):              2250
    Schwarz Cutoff:          0E+00
    Fitting Condition:       1E-12

   => Auxiliary Basis Set <=

  Basis Set: (6-31G* AUX)
    Blend: CC-PVDZ-JKFIT
    Number of shells: 297
    Number of basis function: 954
    Number of Cartesian functions: 954
    Spherical Harmonics?: false
    Max angular momentum: 3

  ==> DFT Potential <==

   => B3LYP Composite Functional <= 

    B3LYP Hybrid-GGA Exchange-Correlation Functional (VWN1-RPA)

    P.J. Stephens et. al., J. Phys. Chem., 98, 11623-11627, 1994

    Points   =           5000
    Deriv    =              1
    GGA      =           TRUE
    Meta     =          FALSE

    X_LRC        =          FALSE
    X_Hybrid     =           TRUE
    X_Alpha      =   2.000000E-01
    X_Omega      =   0.000000E+00
    C_LRC        =          FALSE
    C_Hybrid     =          FALSE
    C_Alpha      =   0.000000E+00
    C_Omega      =   0.000000E+00

   => Exchange Functionals <=

    0.8000    B3_X
    0.2000      HF 

   => Correlation Functionals <=

    0.1900 VWN3RPA_C
    0.8100   LYP_C

   => Molecular Quadrature <=

    Radial Scheme    =       TREUTLER
    Pruning Scheme   =           FLAT
    Nuclear Scheme   =       TREUTLER

    BS radius alpha  =              1
    Pruning alpha    =              1
    Radial Points    =             75
    Spherical Points =            302
    Total Points     =         396923
    Total Blocks     =            364
    Max Points       =           4975
    Max Functions    =            151


  -Total Gradient:
     Atom            X                  Y                   Z
    ------   -----------------  -----------------  -----------------
       1       -0.006547754592     0.008182249180     0.003164936701
       2       -0.001417608971     0.001975914221    -0.001865053425
       3       -0.000192688176    -0.000143628219     0.001309968895
       4        0.000071910459     0.000856022874     0.000580038002
       5        0.000034398720     0.000339779891    -0.000925137532
       6        0.000970389834    -0.001021274129     0.000434090933
       7       -0.000102207404    -0.013205751355    -0.005357713728
       8        0.000703090428     0.000308015025    -0.002400743033
       9        0.000207133473     0.000443877397     0.000089323730
      10        0.000014128315    -0.000091785038     0.000139978902
      11       -0.000231115898    -0.001309071867     0.000309189310
      12        0.001022811768    -0.002286554468    -0.000609661976
      13       -0.005733662108     0.001101508931     0.005643130573
      14        0.001471711806    -0.006158948300    -0.005621371903
      15       -0.001038670374     0.001708230039    -0.000249314788
      16        0.011434912067     0.013192163461     0.009314969659
      17       -0.006171063126    -0.002379718565     0.004597678889
      18        0.005500935371    -0.001513405646    -0.008552107785


*** tstop() called on computer06 at Tue Dec 12 14:37:15 2017
Module time:
	user time   =      21.94 seconds =       0.37 minutes
	system time =       0.34 seconds =       0.01 minutes
	total time  =         22 seconds =       0.37 minutes
Total time:
	user time   =     229.73 seconds =       3.83 minutes
	system time =       2.18 seconds =       0.04 minutes
	total time  =        233 seconds =       3.88 minutes

			-----------------------------------------
			 OPTKING 2.0: for geometry optimizations 
			  - R.A. King,  Bethel University        
			-----------------------------------------
	At level 1: Red. Int., RFO, no backsteps, dynamic trust

	Previous internal coordinate definitions found.
	---Fragment 1 Geometry and Gradient---
	 C           0.0721125605       -0.0350097559       -0.3348570776
	 C           0.2531288155        2.2802644063        0.9838830665
	 C           0.1916167800        2.2906997303        3.6113495104
	 C           0.0113667226        0.0084963726        4.9374762929
	 C          -0.1481596599       -2.2938777254        3.6394925860
	 C          -0.1503763174       -2.3265470878        1.0149607413
	 C           0.0745757924       -0.0591501184       -3.1005310010
	 H           0.3199080515        4.0627855330       -0.0379817667
	 H           0.2723504205        4.0729592200        4.6245713372
	 H          -0.0233280642        0.0233384946        6.9891362891
	 H          -0.2864692880       -4.0603691802        4.6784898440
	 H          -0.2682079988       -4.1226168262        0.0206030476
	 N          -1.2069997624       -1.8408095836       -4.4877952939
	 N           1.2004061869        1.8372334624       -4.3036126114
	 H           1.1037777006        1.9833321421       -6.2153989203
	 H           2.1888152316        3.2330936094       -3.3455046649
	 H          -2.7649908458       -1.3817673587       -5.5015553797
	 H          -0.6891154639       -3.6843839079       -4.4871193421
	            -0.0065477546        0.0081822492        0.0031649367
	            -0.0014176090        0.0019759142       -0.0018650534
	            -0.0001926882       -0.0001436282        0.0013099689
	             0.0000719105        0.0008560229        0.0005800380
	             0.0000343987        0.0003397799       -0.0009251375
	             0.0009703898       -0.0010212741        0.0004340909
	            -0.0001022074       -0.0132057514       -0.0053577137
	             0.0007030904        0.0003080150       -0.0024007430
	             0.0002071335        0.0004438774        0.0000893237
	             0.0000141283       -0.0000917850        0.0001399789
	            -0.0002311159       -0.0013090719        0.0003091893
	             0.0010228118       -0.0022865545       -0.0006096620
	            -0.0057336621        0.0011015089        0.0056431306
	             0.0014717118       -0.0061589483       -0.0056213719
	            -0.0010386704        0.0017082300       -0.0002493148
	             0.0114349121        0.0131921635        0.0093149697
	            -0.0061710631       -0.0023797186        0.0045976789
	             0.0055009354       -0.0015134056       -0.0085521078

	---Fragment 1 Intrafragment Coordinates---
	 - Coordinate -           - BOHR/RAD -       - ANG/DEG -
	 R(1,2)           =         2.670644	       1.413244
	 R(1,6)           =         2.668830	       1.412284
	 R(1,7)           =         2.765780	       1.463588
	 R(2,3)           =         2.628207	       1.390787
	 R(2,8)           =         2.055736	       1.087848
	 R(3,4)           =         2.645667	       1.400027
	 R(3,9)           =         2.051727	       1.085727
	 R(4,5)           =         2.647855	       1.401185
	 R(4,10)          =         2.052007	       1.085875
	 R(5,6)           =         2.624736	       1.388951
	 R(5,11)          =         2.054054	       1.086958
	 R(6,12)          =         2.056331	       1.088164
	 R(7,13)          =         2.596391	       1.373951
	 R(7,14)          =         2.512204	       1.329401
	 R(13,17)         =         1.914619	       1.013173
	 R(13,18)         =         1.914934	       1.013339
	 R(14,15)         =         1.919794	       1.015911
	 R(14,16)         =         1.960446	       1.037423
	 B(1,2,3)         =         2.089216	     119.703241
	 B(1,2,8)         =         2.104197	     120.561597
	 B(1,6,5)         =         2.088602	     119.668069
	 B(1,6,12)        =         2.106171	     120.674709
	 B(1,7,13)        =         2.141036	     122.672336
	 B(1,7,14)        =         2.063134	     118.208848
	 B(2,1,6)         =         2.094720	     120.018620
	 B(2,1,7)         =         2.095872	     120.084627
	 B(2,3,4)         =         2.093556	     119.951915
	 B(2,3,9)         =         2.090044	     119.750716
	 B(3,2,8)         =         2.087777	     119.620787
	 B(3,4,5)         =         2.104194	     120.561426
	 B(3,4,10)        =         2.089866	     119.740505
	 B(4,3,9)         =         2.099567	     120.296328
	 B(4,5,6)         =         2.095593	     120.068657
	 B(4,5,11)        =         2.098895	     120.257832
	 B(5,4,10)        =         2.089080	     119.695447
	 B(5,6,12)        =         2.087988	     119.632914
	 B(6,1,7)         =         2.092470	     119.889698
	 B(6,5,11)        =         2.088663	     119.671546
	 B(7,13,17)       =         2.117696	     121.335051
	 B(7,13,18)       =         2.125810	     121.799938
	 B(7,14,15)       =         2.108060	     120.782960
	 B(7,14,16)       =         2.128658	     121.963121
	 B(13,7,14)       =         2.075243	     118.902658
	 B(15,14,16)      =         2.046397	     117.249906
	 B(17,13,18)      =         2.038771	     116.812953
	 D(1,2,3,4)       =         0.026328	       1.508484
	 D(1,2,3,9)       =        -3.108805	    -178.121413
	 D(1,6,5,4)       =         0.027392	       1.569453
	 D(1,6,5,11)      =        -3.123075	    -178.939032
	*D(1,7,13,17)     =         1.919863	     110.000044
	 D(1,7,13,18)     =        -1.174464	     -67.291846
	 D(1,7,14,15)     =        -3.039923	    -174.174783
	 D(1,7,14,16)     =         0.088597	       5.076257
	 D(2,1,6,5)       =        -0.018427	      -1.055792
	 D(2,1,6,12)      =        -3.128606	    -179.255901
	 D(2,1,7,13)      =        -2.593234	    -148.581350
	 D(2,1,7,14)      =         0.454008	      26.012744
	 D(2,3,4,5)       =        -0.017535	      -1.004671
	 D(2,3,4,10)      =         3.134370	     179.586147
	 D(3,2,1,6)       =        -0.008529	      -0.488653
	 D(3,2,1,7)       =         3.116182	     178.544094
	 D(3,4,5,6)       =        -0.009667	      -0.553851
	 D(3,4,5,11)      =         3.140853	     179.957643
	 D(4,3,2,8)       =         3.100453	     177.642861
	 D(4,5,6,12)      =         3.137901	     179.788480
	 D(5,4,3,9)       =         3.117563	     178.623184
	 D(5,6,1,7)       =         3.140014	     179.909563
	 D(6,1,2,8)       =        -3.082007	    -176.586015
	 D(6,1,7,13)      =         0.531499	      30.452651
	 D(6,1,7,14)      =        -2.704444	    -154.953255
	 D(6,5,4,10)      =         3.121619	     178.855596
	 D(7,1,2,8)       =         0.042704	       2.446733
	 D(7,1,6,12)      =         0.029836	       1.709454
	 D(8,2,3,9)       =        -0.034680	      -1.987036
	 D(9,3,4,10)      =        -0.013718	      -0.785998
	 D(10,4,5,11)     =        -0.011046	      -0.632910
	 D(11,5,6,12)     =        -0.012566	      -0.720005
	 D(13,7,14,15)    =         0.010957	       0.627813
	 D(13,7,14,16)    =         3.139478	     179.878852
	 D(14,7,13,17)    =        -1.126753	     -64.558199
	 D(14,7,13,18)    =         2.062105	     118.149911

	Current energy   :      -381.4350144898

	Energy change for the previous step:
		Projected    :        -0.0063018233
		Actual       :        -0.0080725716
	Energy ratio indicates good step: Trust radius increased to 1.000e+00.


	Performing BFGS update.
	Previous computed or guess Hessian on step 1.
	Steps to be used in Hessian update: 1
	Taking RFO optimization step.
	Going to follow RFO solution 1.
	Using RFO vector 1.
	Norm of target step-size    0.57307
	Projected energy change by RFO approximation:        -0.0021470379

	Back-transformation to cartesian coordinates...
	Could not converge backtransformation.
	Using first guess instead.

	Back-transformation to cartesian coordinates to adjust frozen coordinates...
	Successfully converged to displaced geometry.

	--- Internal Coordinate Step in ANG or DEG, aJ/ANG or AJ/DEG ---
	 ---------------------------------------------------------------------------
	   Coordinate                Previous        Force       Change         New 
	   ----------                --------       ------       ------       ------
	    1 R(1,2)          =      1.413244     0.003490     0.003936     1.417180
	    2 R(1,6)          =      1.412284    -0.013385     0.001995     1.414279
	    3 R(1,7)          =      1.463588    -0.002420    -0.001749     1.461839
	    4 R(2,3)          =      1.390787    -0.011546    -0.001510     1.389277
	    5 R(2,8)          =      1.087848    -0.012223    -0.000552     1.087296
	    6 R(3,4)          =      1.400027    -0.009885     0.000555     1.400582
	    7 R(3,9)          =      1.085727    -0.003609     0.000007     1.085734
	    8 R(4,5)          =      1.401185    -0.018350    -0.000420     1.400764
	    9 R(4,10)         =      1.085875    -0.001145     0.000146     1.086022
	   10 R(5,6)          =      1.388951    -0.000941    -0.000793     1.388158
	   11 R(5,11)         =      1.086958    -0.010689     0.000294     1.087252
	   12 R(6,12)         =      1.088164    -0.018398    -0.000363     1.087801
	   13 R(7,13)         =      1.373951    -0.034394     0.017372     1.391323
	   14 R(7,14)         =      1.329401    -0.084593    -0.003265     1.326136
	   15 R(13,17)        =      1.013173    -0.016614    -0.000090     1.013083
	   16 R(13,18)        =      1.013339    -0.024238     0.024378     1.037717
	   17 R(14,15)        =      1.015911    -0.003550     0.004664     1.020575
	   18 R(14,16)        =      1.037423    -0.162387     0.002849     1.040272
	   19 B(1,2,3)        =    119.703241     0.000080     0.242461   119.945703
	   20 B(1,2,8)        =    120.561597     0.000108     0.621594   121.183190
	   21 B(1,6,5)        =    119.668069     0.000145     0.482703   120.150773
	   22 B(1,6,12)       =    120.674709    -0.000113    -0.269182   120.405528
	   23 B(1,7,13)       =    122.672336    -0.000114     0.680289   123.352625
	   24 B(1,7,14)       =    118.208848     0.001045     2.429885   120.638733
	   25 B(2,1,6)        =    120.018620    -0.000203    -0.658699   119.359921
	   26 B(2,1,7)        =    120.084627     0.000450     1.450253   121.534879
	   27 B(2,3,4)        =    119.951915     0.000042     0.105381   120.057297
	   28 B(2,3,9)        =    119.750716    -0.000009    -0.039088   119.711628
	   29 B(3,2,8)        =    119.620787    -0.000189    -0.911106   118.709681
	   30 B(3,4,5)        =    120.561426    -0.000048    -0.090971   120.470455
	   31 B(3,4,10)       =    119.740505     0.000017     0.048783   119.789288
	   32 B(4,3,9)        =    120.296328    -0.000033    -0.068086   120.228242
	   33 B(4,5,6)        =    120.068657    -0.000016    -0.108836   119.959821
	   34 B(4,5,11)       =    120.257832    -0.000023    -0.041067   120.216766
	   35 B(5,4,10)       =    119.695447     0.000031     0.033603   119.729050
	   36 B(5,6,12)       =    119.632914    -0.000032    -0.192752   119.440162
	   37 B(6,1,7)        =    119.889698    -0.000248    -0.812262   119.077437
	   38 B(6,5,11)       =    119.671546     0.000040     0.143468   119.815015
	   39 B(7,13,17)      =    121.335051    -0.000065     0.060527   121.395578
	   40 B(7,13,18)      =    121.799938    -0.000095    -2.541327   119.258610
	   41 B(7,14,15)      =    120.782960    -0.000071    -1.603057   119.179903
	   42 B(7,14,16)      =    121.963121     0.000019     1.246689   123.209809
	   43 B(13,7,14)      =    118.902658    -0.000932    -3.258569   115.644089
	   44 B(15,14,16)     =    117.249906     0.000052     0.323879   117.573785
	   45 B(17,13,18)     =    116.812953     0.000136    -0.454449   116.358504
	   46 D(1,2,3,4)      =      1.508484    -0.000001     0.133307     1.641791
	   47 D(1,2,3,9)      =   -178.121413     0.000001     0.374141  -177.747272
	   48 D(1,6,5,4)      =      1.569453     0.000003     0.670198     2.239651
	   49 D(1,6,5,11)     =   -178.939032     0.000001     0.126818  -178.812214
	   50 *D(1,7,13,17)   =    110.000044     0.000000    -0.000000   110.000044
	   51 D(1,7,13,18)    =    -67.291846     0.000143    17.556291   -49.735555
	   52 D(1,7,14,15)    =   -174.174783    -0.000023    -2.578789  -176.753572
	   53 D(1,7,14,16)    =      5.076257    -0.000023    -4.082726     0.993531
	   54 D(2,1,6,5)      =     -1.055792    -0.000006    -1.095674    -2.151466
	   55 D(2,1,6,12)     =   -179.255901    -0.000013    -2.207497  -181.463398
	   56 D(2,1,7,13)     =   -148.581350    -0.000022    -6.122858  -154.704208
	   57 D(2,1,7,14)     =     26.012744    -0.000037    -7.955033    18.057711
	   58 D(2,3,4,5)      =     -1.004671    -0.000002    -0.569724    -1.574395
	   59 D(2,3,4,10)     =    179.586147     0.000001     0.060478   179.646625
	   60 D(3,2,1,6)      =     -0.488653     0.000005     0.690499     0.201846
	   61 D(3,2,1,7)      =    178.544094    -0.000001    -0.276890   178.267204
	   62 D(3,4,5,6)      =     -0.553851     0.000002     0.171428    -0.382423
	   63 D(3,4,5,11)     =    179.957643     0.000004     0.716070   180.673713
	   64 D(4,3,2,8)      =    177.642861    -0.000004    -0.563612   177.079249
	   65 D(4,5,6,12)     =    179.788480     0.000009     1.769744   181.558224
	   66 D(5,4,3,9)      =    178.623184    -0.000005    -0.811701   177.811482
	   67 D(5,6,1,7)      =    179.909563    -0.000001    -0.174312   179.735251
	   68 D(6,1,2,8)      =   -176.586015     0.000011     1.465577  -175.120438
	   69 D(6,1,7,13)     =     30.452651    -0.000028    -7.086171    23.366480
	   70 D(6,1,7,14)     =   -154.953255    -0.000043    -8.918347  -163.871602
	   71 D(6,5,4,10)     =    178.855596    -0.000001    -0.458305   178.397290
	   72 D(7,1,2,8)      =      2.446733     0.000005     0.498187     2.944920
	   73 D(7,1,6,12)     =      1.709454    -0.000008    -1.286135     0.423319
	   74 D(8,2,3,9)      =     -1.987036    -0.000002    -0.322778    -2.309814
	   75 D(9,3,4,10)     =     -0.785998    -0.000001    -0.181499    -0.967497
	   76 D(10,4,5,11)    =     -0.632910     0.000000     0.086336    -0.546574
	   77 D(11,5,6,12)    =     -0.720005     0.000007     1.226363     0.506358
	   78 D(13,7,14,15)   =      0.627813    -0.000028    -4.085438    -3.457625
	   79 D(13,7,14,16)   =    179.878852    -0.000028    -5.589375   174.289478
	   80 D(14,7,13,17)   =    -64.558199    -0.000009     1.464672   -63.093527
	   81 D(14,7,13,18)   =    118.149911     0.000134    19.020963   137.170874
	 ---------------------------------------------------------------------------
	Successfully symmetrized geometry.

  ==> Convergence Check <==

  Measures of convergence in internal coordinates in au.
  Criteria marked as inactive (o), active & met (*), and active & unmet ( ).
  ---------------------------------------------------------------------------------------------
   Step     Total Energy     Delta E     MAX Force     RMS Force      MAX Disp      RMS Disp   
  ---------------------------------------------------------------------------------------------
    Convergence Criteria    1.00e-06 *    3.00e-04 *             o    1.20e-03 *             o
  ---------------------------------------------------------------------------------------------
      2    -381.43501449   -8.07e-03      1.97e-02      3.71e-03 o    3.32e-01      6.24e-02 o  ~
  ---------------------------------------------------------------------------------------------

	Writing optimization data to binary file.
	Structure for next step:
	Cartesian Geometry (in Angstrom)
	    C     0.0724651078   0.0059141478  -0.1792810091
	    C     0.2049881125   1.2142725444   0.5492143386
	    C     0.1529177063   1.1964174394   1.9374006739
	    C     0.0041057995  -0.0184621981   2.6182477595
	    C    -0.1262857083  -1.2190964905   1.9085883667
	    C    -0.1163987725  -1.2085050334   0.5205063186
	    C     0.0845964939  -0.0108863864  -1.6409732173
	    H     0.2725124438   2.1733051282   0.0413655134
	    H     0.2180540385   2.1285042358   2.4903831774
	    H    -0.0303058835  -0.0279658015   3.7036824641
	    H    -0.2525548426  -2.1585480545   2.4411334148
	    H    -0.2438241755  -2.1425893393  -0.0222274265
	    N    -0.5229744623  -1.0064487886  -2.3995855896
	    N     0.5660792770   1.0183472684  -2.3247044496
	    H     0.5181423855   1.0047247596  -3.3440621567
	    H     0.9654121064   1.8659286550  -1.8727034916
	    H    -1.3554337400  -0.8196800848  -2.9459058115
	    H    -0.3319018864  -2.0017560015  -2.1766258752
			--------------------------
			 OPTKING Finished Execution 
			--------------------------

    Structure for next step:
    Molecular point group: c1
    Full point group: C1

    Geometry (in Angstrom), charge = 1, multiplicity = 1:

    C            0.072465107815     0.005914147751    -0.179281009073
    C            0.204988112481     1.214272544434     0.549214338641
    C            0.152917706291     1.196417439394     1.937400673933
    C            0.004105799457    -0.018462198053     2.618247759518
    C           -0.126285708339    -1.219096490483     1.908588366736
    C           -0.116398772539    -1.208505033354     0.520506318572
    C            0.084596493913    -0.010886386393    -1.640973217343
    H            0.272512443821     2.173305128158     0.041365513436
    H            0.218054038512     2.128504235832     2.490383177377
    H           -0.030305883540    -0.027965801472     3.703682464056
    H           -0.252554842647    -2.158548054519     2.441133414789
    H           -0.243824175485    -2.142589339285    -0.022227426460
    N           -0.522974462272    -1.006448788646    -2.399585589629
    N            0.566079276966     1.018347268402    -2.324704449570
    H            0.518142385479     1.004724759587    -3.344062156709
    H            0.965412106410     1.865928655004    -1.872703491592
    H           -1.355433739963    -0.819680084850    -2.945905811468
    H           -0.331901886360    -2.001756001506    -2.176625875215

gradient() will perform analytic gradient computation.

*** tstart() called on computer06
*** at Tue Dec 12 14:37:15 2017

   => Loading Basis Set <=

    Name: 6-31G*
    Role: ORBITAL
    Keyword: BASIS
    atoms 1-7         entry C          line   102 file /shared/raimis/opt/miniconda/share/psi4/basis/6-31gs.gbs 
    atoms 8-12, 15-18 entry H          line    35 file /shared/raimis/opt/miniconda/share/psi4/basis/6-31gs.gbs 
    atoms 13-14       entry N          line   119 file /shared/raimis/opt/miniconda/share/psi4/basis/6-31gs.gbs 


         ---------------------------------------------------------
                                   SCF
            by Justin Turney, Rob Parrish, and Andy Simmonett
                              RKS Reference
                        1 Threads,   3000 MiB Core
         ---------------------------------------------------------

  ==> Geometry <==

    Molecular point group: c1
    Full point group: C1

    Geometry (in Angstrom), charge = 1, multiplicity = 1:

[...]
	 R(9,Y)           =         3.987891	       2.110301
	 R(9,Z)           =         4.661739	       2.466886
	 R(10,X)          =        -0.099997	      -0.052916
	 R(10,Y)          =        -0.066378	      -0.035126
	 R(10,Z)          =         6.969567	       3.688136
	 R(11,X)          =        -0.511163	      -0.270496
	 R(11,Y)          =        -4.091577	      -2.165169
	 R(11,Z)          =         4.580064	       2.423665
	 R(12,X)          =        -0.363814	      -0.192522
	 R(12,Y)          =        -4.100728	      -2.170012
	 R(12,Z)          =        -0.023731	      -0.012558
	 R(13,X)          =        -0.712445	      -0.377010
	 R(13,Y)          =        -1.953042	      -1.033505
	 R(13,Z)          =        -4.595478	      -2.431822
	 R(14,X)          =         0.937859	       0.496293
	 R(14,Y)          =         2.003437	       1.060173
	 R(14,Z)          =        -4.423589	      -2.340863
	 R(15,X)          =         1.018159	       0.538786
	 R(15,Y)          =         1.947446	       1.030544
	 R(15,Z)          =        -6.337733	      -3.353784
	 R(16,X)          =         1.617366	       0.855873
	 R(16,Y)          =         3.570800	       1.889586
	 R(16,Z)          =        -3.568082	      -1.888148
	 R(17,X)          =        -2.319590	      -1.227474
	 R(17,Y)          =        -1.563579	      -0.827410
	 R(17,Z)          =        -5.577384	      -2.951424
	 R(18,X)          =        -1.003993	      -0.531290
	 R(18,Y)          =        -3.577661	      -1.893217
	 R(18,Z)          =        -3.620204	      -1.915729

	Current energy   :      -381.4507770182

	Energy change for the previous step:
		Projected    :        -0.0000008646
		Actual       :        -0.0000003764

	Performing BFGS update.
	Previous computed or guess Hessian on step 1.
	Steps to be used in Hessian update: 2 1
	Taking RFO optimization step.
	Going to follow RFO solution 1.
	Rejecting RFO root 1 because normalization gives large value.
	Rejecting RFO root 2 because normalization gives large value.
	Rejecting RFO root 3 because normalization gives large value.
	Rejecting RFO root 4 because normalization gives large value.
	Using RFO vector 5.
	Norm of target step-size    0.01039
	Projected energy change by RFO approximation:        -0.0000038150

	Back-transformation to cartesian coordinates...
	Successfully converged to displaced geometry.

	Back-transformation to cartesian coordinates to adjust frozen coordinates...
	Successfully converged to displaced geometry.

	--- Internal Coordinate Step in ANG or DEG, aJ/ANG or AJ/DEG ---
	 ---------------------------------------------------------------------------
	   Coordinate                Previous        Force       Change         New 
	   ----------                --------       ------       ------       ------
	    1 R(1,2)          =      1.412493     0.000386    -0.000079     1.412414
	    2 R(1,6)          =      1.411371    -0.000385     0.000072     1.411443
	    3 R(1,7)          =      1.463025    -0.000014    -0.000386     1.462638
	    4 R(2,3)          =      1.388436     0.000154    -0.000108     1.388328
	    5 R(2,8)          =      1.085794    -0.000047     0.000007     1.085801
	    6 R(3,4)          =      1.398822    -0.000001    -0.000025     1.398796
	    7 R(3,9)          =      1.085006    -0.000003    -0.000027     1.084979
	    8 R(4,5)          =      1.397636     0.000004     0.000024     1.397660
	    9 R(4,10)         =      1.085593    -0.000016    -0.000030     1.085563
	   10 R(5,6)          =      1.389266    -0.000128    -0.000075     1.389191
	   11 R(5,11)         =      1.084940    -0.000004    -0.000045     1.084894
	   12 R(6,12)         =      1.085838     0.000021    -0.000063     1.085775
	   13 R(7,13)         =      1.370828    -0.000670    -0.000026     1.370802
	   14 R(7,14)         =      1.323117    -0.000205     0.000058     1.323175
	   15 R(13,17)        =      1.017719     0.001838     0.000006     1.017725
	   16 R(13,18)        =      1.014524    -0.000044     0.000264     1.014787
	   17 R(14,15)        =      1.014245    -0.000055    -0.000066     1.014180
	   18 R(14,16)        =      1.011026     0.000258    -0.000014     1.011012
	   19 B(1,2,3)        =    120.350220    -0.000002     0.007277   120.357497
	   20 B(1,2,8)        =    121.502802     0.000002     0.006874   121.509676
	   21 B(1,6,5)        =    120.470865     0.000001    -0.001011   120.469854
	   22 B(1,6,12)       =    121.444549    -0.000001     0.025857   121.470406
	   23 B(1,7,13)       =    123.446829    -0.000001     0.009472   123.456302
	   24 B(1,7,14)       =    121.455254     0.000004     0.030132   121.485386
	   25 B(2,1,6)        =    118.859058     0.000000    -0.005444   118.853614
	   26 B(2,1,7)        =    120.804374    -0.000004    -0.002807   120.801567
	   27 B(2,3,4)        =    120.118421     0.000000    -0.001931   120.116490
	   28 B(2,3,9)        =    119.638644    -0.000000    -0.004567   119.634077
	   29 B(3,2,8)        =    118.068518    -0.000001    -0.018054   118.050464
	   30 B(3,4,5)        =    120.166570    -0.000000    -0.002128   120.164442
	   31 B(3,4,10)       =    119.897222     0.000000    -0.002522   119.894700
	   32 B(4,3,9)        =    120.242759     0.000000     0.006645   120.249403
	   33 B(4,5,6)        =    120.018449     0.000000     0.001272   120.019722
	   34 B(4,5,11)       =    120.290196     0.000000     0.002414   120.292610
	   35 B(5,4,10)       =    119.936010     0.000000     0.004503   119.940513
	   36 B(5,6,12)       =    118.054022    -0.000000    -0.022852   118.031170
	   37 B(6,1,7)        =    120.336304     0.000003     0.008364   120.344668
	   38 B(6,5,11)       =    119.691339    -0.000001    -0.003671   119.687668
	   39 B(7,13,17)      =    115.246209     0.000002    -0.066163   115.180046
	   40 B(7,13,18)      =    113.788077     0.000004    -0.042321   113.745757
	   41 B(7,14,15)      =    120.074960     0.000001    -0.006172   120.068788
	   42 B(7,14,16)      =    122.469542    -0.000001     0.019415   122.488957
	   43 B(13,7,14)      =    114.852841    -0.000002    -0.037417   114.815425
	   44 B(15,14,16)     =    117.145871    -0.000001    -0.016671   117.129200
	   45 B(17,13,18)     =    107.712888    -0.000005    -0.017656   107.695232
	   46 D(1,2,3,4)      =      1.430740     0.000000     0.113510     1.544250
	   47 D(1,2,3,9)      =   -178.416743     0.000000     0.023964  -178.392779
	   48 D(1,6,5,4)      =      0.800040     0.000000     0.001599     0.801639
	   49 D(1,6,5,11)     =   -179.245278     0.000000     0.055998  -179.189280
	   50 *D(1,7,13,17)   =    110.000044     0.000000     0.000000   110.000044
	   51 D(1,7,13,18)    =    -15.132407     0.000000     0.119724   -15.012683
	   52 D(1,7,14,15)    =    177.997071    -0.000001    -0.046706   177.950364
	   53 D(1,7,14,16)    =      4.572143    -0.000000    -0.009413     4.562730
	   54 D(2,1,6,5)      =     -0.008348    -0.000000     0.012922     0.004574
	   55 D(2,1,6,12)     =   -177.958137    -0.000000    -0.054637  -178.012774
	   56 D(2,1,7,13)     =   -161.942485    -0.000000    -0.103816  -162.046302
	   57 D(2,1,7,14)     =     12.074343    -0.000001    -0.079241    11.995102
	   58 D(2,3,4,5)      =     -0.630070    -0.000000    -0.098340    -0.728410
	   59 D(2,3,4,10)     =    179.531716    -0.000000    -0.046451   179.485265
	   60 D(3,2,1,6)      =     -1.109210     0.000000    -0.070637    -1.179847
	   61 D(3,2,1,7)      =    178.704541     0.000000    -0.025250   178.679291
	   62 D(3,4,5,6)      =     -0.487804    -0.000000     0.040647    -0.447157
	   63 D(3,4,5,11)     =    179.557788    -0.000000    -0.014081   179.543706
	   64 D(4,3,2,8)      =    178.258107     0.000000     0.035858   178.293965
	   65 D(4,5,6,12)     =    178.818063     0.000000     0.067845   178.885907
	   66 D(5,4,3,9)      =    179.216484    -0.000000    -0.008256   179.208228
	   67 D(5,6,1,7)      =   -179.822996    -0.000000    -0.032230  -179.855226
	   68 D(6,1,2,8)      =   -177.825678    -0.000000     0.010549  -177.815129
	   69 D(6,1,7,13)     =     17.868518    -0.000000    -0.057780    17.810738
	   70 D(6,1,7,14)     =   -168.114654    -0.000001    -0.033205  -168.147858
	   71 D(6,5,4,10)     =    179.350348    -0.000000    -0.011278   179.339070
	   72 D(7,1,2,8)      =      1.988073    -0.000000     0.055936     2.044009
	   73 D(7,1,6,12)     =      2.227215    -0.000000    -0.099789     2.127426
	   74 D(8,2,3,9)      =     -1.589376     0.000000    -0.053688    -1.643064
	   75 D(9,3,4,10)     =     -0.621731    -0.000000     0.043634    -0.578097
	   76 D(10,4,5,11)    =     -0.604061    -0.000000    -0.066006    -0.670067
	   77 D(11,5,6,12)    =     -1.227255     0.000000     0.122243    -1.105012
	   78 D(13,7,14,15)   =     -7.503251    -0.000001    -0.021867    -7.525118
	   79 D(13,7,14,16)   =    179.071821    -0.000001     0.015426   179.087247
	   80 D(14,7,13,17)   =    -64.376300     0.000000    -0.026594   -64.402894
	   81 D(14,7,13,18)   =    170.491249     0.000000     0.093130   170.584379
	   82 R(1,X)          =      0.070376     0.000059    -0.000639     0.069737
	   83 R(1,Y)          =     -0.009956    -0.000598    -0.000008    -0.009963
	   84 R(1,Z)          =     -0.199653     0.000127     0.000202    -0.199452
	   85 R(2,X)          =      0.215074     0.000191     0.000354     0.215428
	   86 R(2,Y)          =      1.190161    -0.000026    -0.000261     1.189900
	   87 R(2,Z)          =      0.531044    -0.000091     0.000266     0.531310
	   88 R(3,X)          =      0.157023     0.000114    -0.000513     0.156510
	   89 R(3,Y)          =      1.178278    -0.000006    -0.000029     1.178249
	   90 R(3,Z)          =      1.918215     0.000059     0.000123     1.918339
	   91 R(4,X)          =     -0.015654     0.000030    -0.000037    -0.015691
	   92 R(4,Y)          =     -0.029066     0.000037    -0.000025    -0.029091
	   93 R(4,Z)          =      2.603200     0.000111     0.000199     2.603399
	   94 R(5,X)          =     -0.143659    -0.000052    -0.000735    -0.144395
	   95 R(5,Y)          =     -1.226713     0.000035     0.000025    -1.226688
	   96 R(5,Z)          =      1.894226     0.000122     0.000194     1.894420
	   97 R(6,X)          =     -0.109755    -0.000126    -0.001058    -0.110813
	   98 R(6,Y)          =     -1.219265    -0.000051     0.000005    -1.219260
	   99 R(6,Z)          =      0.505394     0.000248     0.000261     0.505656
	  100 R(7,X)          =      0.101756     0.000288    -0.000251     0.101505
	  101 R(7,Y)          =     -0.004992    -0.000008     0.000113    -0.004879
	  102 R(7,Z)          =     -1.662333     0.000148     0.000597    -1.661736
	  103 R(8,X)          =      0.320983     0.000423     0.000547     0.321530
	  104 R(8,Y)          =      2.148813    -0.000042    -0.000169     2.148644
	  105 R(8,Z)          =      0.032326     0.000031     0.000469     0.032796
	  106 R(9,X)          =      0.243810     0.000109    -0.000094     0.243716
	  107 R(9,Y)          =      2.110301     0.000026    -0.000008     2.110293
	  108 R(9,Z)          =      2.466886     0.000000    -0.000034     2.466852
	  109 R(10,X)         =     -0.052916    -0.000001     0.000039    -0.052877
	  110 R(10,Y)         =     -0.035126     0.000055     0.000079    -0.035047
	  111 R(10,Z)         =      3.688136     0.000094     0.000173     3.688309
	  112 R(11,X)         =     -0.270496    -0.000117    -0.000139    -0.270635
	  113 R(11,Y)         =     -2.165169     0.000020    -0.000020    -2.165189
	  114 R(11,Z)         =      2.423665     0.000073     0.000165     2.423830
	  115 R(12,X)         =     -0.192522    -0.000485    -0.002756    -0.195278
	  116 R(12,Y)         =     -2.170012    -0.000073     0.000005    -2.170007
	  117 R(12,Z)         =     -0.012558     0.000302     0.000668    -0.011891
	  118 R(13,X)         =     -0.377010     0.000866     0.000870    -0.376139
	  119 R(13,Y)         =     -1.033505     0.000478    -0.000095    -1.033600
	  120 R(13,Z)         =     -2.431822     0.000331     0.000225    -2.431598
	  121 R(14,X)         =      0.496293    -0.000382    -0.000573     0.495720
	  122 R(14,Y)         =      1.060173    -0.000184     0.000025     1.060198
	  123 R(14,Z)         =     -2.340863    -0.000118     0.000157    -2.340705
	  124 R(15,X)         =      0.538786     0.000107     0.000175     0.538961
	  125 R(15,Y)         =      1.030544    -0.000404    -0.000714     1.029831
	  126 R(15,Z)         =     -3.353784    -0.000036     0.000277    -3.353507
	  127 R(16,X)         =      0.855873    -0.000922    -0.001023     0.854850
	  128 R(16,Y)         =      1.889586     0.000370     0.000540     1.890127
	  129 R(16,Z)         =     -1.888148    -0.000128    -0.000462    -1.888610
	  130 R(17,X)         =     -1.227474    -0.000704     0.000866    -1.226608
	  131 R(17,Y)         =     -0.827410     0.000258     0.000406    -0.827005
	  132 R(17,Z)         =     -2.951424    -0.000788     0.000419    -2.951006
	  133 R(18,X)         =     -0.531290     0.000612    -0.000225    -0.531515
	  134 R(18,Y)         =     -1.893217     0.000118     0.000336    -1.892880
	  135 R(18,Z)         =     -1.915729    -0.000431     0.001132    -1.914597
	 ---------------------------------------------------------------------------
	Successfully symmetrized geometry.

  ==> Convergence Check <==

  Measures of convergence in internal coordinates in au.
  Criteria marked as inactive (o), active & met (*), and active & unmet ( ).
  ---------------------------------------------------------------------------------------------
   Step     Total Energy     Delta E     MAX Force     RMS Force      MAX Disp      RMS Disp   
  ---------------------------------------------------------------------------------------------
    Convergence Criteria    1.00e-06 *    3.00e-04 *             o    1.20e-03 *             o
  ---------------------------------------------------------------------------------------------
      3    -381.45077702   -3.76e-07 *    2.23e-04 *    3.59e-05 o    5.21e-03      8.95e-04 o  ~
  ---------------------------------------------------------------------------------------------


  **** Optimization is complete! (in 3 steps) ****

  ==> Optimization Summary <==

  Measures of convergence in internal coordinates in au.
  --------------------------------------------------------------------------------------------------------------- ~
   Step         Total Energy             Delta E       MAX Force       RMS Force        MAX Disp        RMS Disp  ~
  --------------------------------------------------------------------------------------------------------------- ~
      1    -381.450774975707   -381.450774975707      0.00013918      0.00004323      0.00261135      0.00051556  ~
      2    -381.450776641813     -0.000001666107      0.00010676      0.00002330      0.00157418      0.00037937  ~
      3    -381.450777018166     -0.000000376352      0.00022310      0.00003592      0.00520748      0.00089467  ~
  --------------------------------------------------------------------------------------------------------------- ~

	Writing optimization data to binary file.
	Final energy is   -381.4507770181656
	Final (previous) structure:
	Cartesian Geometry (in Angstrom)
	    C     0.0703758118  -0.0099557640  -0.1996534179
	    C     0.2150741140   1.1901612170   0.5310436470
	    C     0.1570233376   1.1782784333   1.9182151410
	    C    -0.0156540357  -0.0290659146   2.6031996894
	    C    -0.1436593462  -1.2267127314   1.8942261654
	    C    -0.1097553644  -1.2192649337   0.5053940956
	    C     0.1017558843  -0.0049922580  -1.6623330639
	    H     0.3209831977   2.1488128844   0.0323263375
	    H     0.2438098780   2.1103009622   2.4668862154
	    H    -0.0529159119  -0.0351256725   3.6881359486
	    H    -0.2704959903  -2.1651694164   2.4236654591
	    H    -0.1925221364  -2.1700115988  -0.0125581599
	    N    -0.3770096872  -1.0335052324  -2.4318222736
	    N     0.4962933538   1.0601730470  -2.3408626334
	    H     0.5387864337   1.0305441579  -3.3537841029
	    H     0.8558731478   1.8895861813  -1.8881477696
	    H    -1.2274741638  -0.8274101121  -2.9514244955
	    H    -0.5312901848  -1.8932168325  -1.9157293060
	Saving final (previous) structure.
			--------------------------
			 OPTKING Finished Execution 
			--------------------------

    Final optimized geometry and variables:
    Molecular point group: c1
    Full point group: C1

    Geometry (in Angstrom), charge = 1, multiplicity = 1:

    C            0.070375811796    -0.009955764043    -0.199653417899
    C            0.215074113958     1.190161217016     0.531043647023
    C            0.157023337579     1.178278433317     1.918215141006
    C           -0.015654035690    -0.029065914625     2.603199689369
    C           -0.143659346238    -1.226712731401     1.894226165392
    C           -0.109755364425    -1.219264933736     0.505394095636
    C            0.101755884304    -0.004992258049    -1.662333063927
    H            0.320983197710     2.148812884424     0.032326337513
    H            0.243809878001     2.110300962216     2.466886215393
    H           -0.052915911943    -0.035125672458     3.688135948639
    H           -0.270495990254    -2.165169416410     2.423665459139
    H           -0.192522136412    -2.170011598758    -0.012558159881
    N           -0.377009687160    -1.033505232436    -2.431822273632
    N            0.496293353835     1.060173047006    -2.340862633388
    H            0.538786433693     1.030544157917    -3.353784102877
    H            0.855873147752     1.889586181257    -1.888147769625
    H           -1.227474163753    -0.827410112085    -2.951424495489
    H           -0.531290184811    -1.893216832451    -1.915729305994

	Cleaning optimization helper files.


Properties will be evaluated at   0.000000,   0.000000,   0.000000 Bohr

Properties computed using the  density matrix

  Nuclear Dipole Moment: (a.u.)
     X:     4.1020      Y:    -0.8586      Z:    -2.6057

  Electronic Dipole Moment: (a.u.)
     X:    -4.3081      Y:     1.1961      Z:     0.9532

  Dipole Moment: (a.u.)
     X:    -0.2061      Y:     0.3376      Z:    -1.6525     Total:     1.6991

  Dipole Moment: (Debye)
     X:    -0.5238      Y:     0.8580      Z:    -4.2002     Total:     4.3188

  Quadrupole Moment: (Debye Ang)
    XX:   -50.8173     YY:   -35.3388     ZZ:   -18.6371
    XY:     6.0618     XZ:     1.9322     YZ:    -3.6213

  Traceless Quadrupole Moment: (Debye Ang)
    XX:   -15.8862     YY:    -0.4078     ZZ:    16.2940
    XY:     6.0618     XZ:     1.9322     YZ:    -3.6213

  Mulliken Charges: (a.u.)
   Center  Symbol    Alpha    Beta     Spin     Total
       1     C     2.92175  2.92175  0.00000  0.15650
       2     C     3.08456  3.08456  0.00000 -0.16911
       3     C     3.06095  3.06095  0.00000 -0.12190
       4     C     3.05008  3.05008  0.00000 -0.10016
       5     C     3.06187  3.06187  0.00000 -0.12373
       6     C     3.08860  3.08860  0.00000 -0.17721
       7     C     2.75940  2.75940  0.00000  0.48120
       8     H     0.42000  0.42000  0.00000  0.16000
       9     H     0.40339  0.40339  0.00000  0.19322
      10     H     0.40096  0.40096  0.00000  0.19809
      11     H     0.40313  0.40313  0.00000  0.19374
      12     H     0.41521  0.41521  0.00000  0.16958
      13     N     3.86783  3.86783  0.00000 -0.73567
      14     N     3.85077  3.85077  0.00000 -0.70154
      15     H     0.29796  0.29796  0.00000  0.40408
      16     H     0.29910  0.29910  0.00000  0.40181
      17     H     0.30414  0.30414  0.00000  0.39172
      18     H     0.31031  0.31031  0.00000  0.37938

   Total alpha = 32.00000, Total beta = 32.00000, Total charge =  1.00000


*** Psi4 exiting successfully. Buy a developer a beer!
