    -----------------------------------------------------------------------
          Psi4: An Open-Source Ab Initio Electronic Structure Package
                              Psi4 (no tag) Driver

                          Git: Rev {detached?}  

    J. M. Turney, A. C. Simmonett, R. M. Parrish, E. G. Hohenstein,
    F. A. Evangelista, J. T. Fermann, B. J. Mintz, L. A. Burns, J. J. Wilke,
    M. L. Abrams, N. J. Russ, M. L. Leininger, C. L. Janssen, E. T. Seidl,
    W. D. Allen, H. F. Schaefer, R. A. King, E. F. Valeev, C. D. Sherrill,
    and T. D. Crawford, WIREs Comput. Mol. Sci. 2, 556-565 (2012)
    (doi: 10.1002/wcms.93)

                         Additional Contributions by
    A. E. DePrince, M. Saitow, U. Bozkaya, A. Yu. Sokolov
    -----------------------------------------------------------------------


    Psi4 started on: Tue Jul  5 16:33:51 2016

    Process ID:   8496
    PSI4DATADIR: /export131/home/mjharvey/miniconda3/share
    Memory level set to 256.000 MB

  ==> Input File <==

--------------------------------------------------------------------------
set {
	reference rhf
	basis 6-31G*
}


set_num_threads( 1 )
memory 2 gb

molecule MOL {
0 1

H	 2.866480	 -0.465706	 0.876907
C	 2.405773	 -0.024801	 0.000000
N	 0.988830	 -0.304158	 0.000000
H	 2.866480	 -0.465706	 -0.876907
H	 2.629928	 1.045948	 0.000000
C	 0.400889	 -0.182629	 -1.321183
C	 0.264583	 0.508736	 0.959499
H	 0.500947	 0.834143	 -1.714455
H	 0.917111	 -0.851998	 -2.002142
C	 -1.071999	 -0.553159	 -1.263761
H	 0.680996	 0.345615	 1.948558
H	 0.354708	 1.575887	 0.732419
C	 -1.204690	 0.119871	 0.956440
H	 -1.547402	 -0.383072	 -2.220881
H	 -1.173587	 -1.606313	 -1.007795
O	 -1.750608	 0.236023	 -0.327474
H	 -1.775802	 0.775411	 1.600735
H	 -1.312521	 -0.901617	 1.316864

	symmetry c1
}
ee = energy('scf')
oeprop('DIPOLE', 'QUADRUPOLE', 'MULLIKEN_CHARGES')
f=open( 'psi4out.xyz', 'w' )
f.write( "18  " )
f.write( str(ee) + "\n" )
f.write( MOL.save_string_xyz() )
f.close()
--------------------------------------------------------------------------

  Memory set to   2.000 GiB by Python script.

*** tstart() called on cx1-3-15-4.cx1.hpc.ic.ac.uk
*** at Tue Jul  5 16:33:51 2016


         ---------------------------------------------------------
                                   SCF
            by Justin Turney, Rob Parrish, and Andy Simmonett
                              RHF Reference
                        1 Threads,   2000 MiB Core
         ---------------------------------------------------------

  ==> Geometry <==

    Molecular point group: c1
    Full point group: C1

    Geometry (in Angstrom), charge = 0, multiplicity = 1:

       Center              X                  Y                   Z               Mass       
    ------------   -----------------  -----------------  -----------------  -----------------
           H          2.862255528412    -0.444278948243     1.021570887086     1.007825032070
           C          2.401548528412    -0.003373948243     0.144663887086    12.000000000000
           N          0.984605528412    -0.282730948243     0.144663887086    14.003074004780
           H          2.862255528412    -0.444278948243    -0.732243112914     1.007825032070
           H          2.625703528412     1.067375051757     0.144663887086     1.007825032070
           C          0.396664528412    -0.161201948243    -1.176519112914    12.000000000000
           C          0.260358528412     0.530163051757     1.104162887086    12.000000000000
           H          0.496722528412     0.855570051757    -1.569791112914     1.007825032070
           H          0.912886528412    -0.830570948243    -1.857478112914     1.007825032070
           C         -1.076223471588    -0.531731948243    -1.119097112914    12.000000000000
           H          0.676771528412     0.367042051757     2.093221887086     1.007825032070
           H          0.350483528412     1.597314051757     0.877082887086     1.007825032070
           C         -1.208914471588     0.141298051757     1.101103887086    12.000000000000
           H         -1.551626471588    -0.361644948243    -2.076217112914     1.007825032070
           H         -1.177811471588    -1.584885948243    -0.863131112914     1.007825032070
           O         -1.754832471588     0.257450051757    -0.182810112914    15.994914619560
           H         -1.780026471588     0.796838051757     1.745398887086     1.007825032070
           H         -1.316745471588    -0.880189948243     1.461527887086     1.007825032070

  Running in c1 symmetry.

  Rotational constants: A =      0.16244  B =      0.07906  C =      0.05780 [cm^-1]
  Rotational constants: A =   4869.72686  B =   2370.21846  C =   1732.81524 [MHz]
  Nuclear repulsion =  341.522660747091891

  Charge       = 0
  Multiplicity = 1
  Electrons    = 56
  Nalpha       = 28
  Nbeta        = 28

  ==> Algorithm <==

  SCF Algorithm Type is DF.
  DIIS enabled.
  MOM disabled.
  Fractional occupation disabled.
  Guess Type is CORE.
  Energy threshold   = 1.00e-06
  Density threshold  = 1.00e-06
  Integral threshold = 0.00e+00

  ==> Primary Basis <==

  Basis Set: 6-31G*
    Number of shells: 64
    Number of basis function: 127
    Number of Cartesian functions: 127
    Spherical Harmonics?: false
    Max angular momentum: 2

  ==> Pre-Iterations <==

   -------------------------------------------------------
    Irrep   Nso     Nmo     Nalpha   Nbeta   Ndocc  Nsocc
   -------------------------------------------------------
     A        127     127       0       0       0       0
   -------------------------------------------------------
    Total     127     127      28      28      28       0
   -------------------------------------------------------

 OEINTS: Overlap, kinetic, potential, dipole, and quadrupole integrals
         stored in file 35.

  ==> Integral Setup <==

  ==> DFJK: Density-Fitted J/K Matrices <==

    J tasked:                  Yes
    K tasked:                  Yes
    wK tasked:                  No
    OpenMP threads:              1
    Integrals threads:           1
    Memory (MB):              1430
    Algorithm:                Core
    Integral Cache:           NONE
    Schwarz Cutoff:          1E-12
    Fitting Condition:       1E-12

   => Auxiliary Basis Set <=

  Basis Set: 
    Number of shells: 267
    Number of basis function: 842
    Number of Cartesian functions: 842
    Spherical Harmonics?: false
    Max angular momentum: 3

  Minimum eigenvalue in the overlap matrix is 3.2381440331E-03.
  Using Symmetric Orthogonalization.
  SCF Guess: Core (One-Electron) Hamiltonian.

  ==> Iterations <==

                           Total Energy        Delta E     RMS |[F,P]|

   @DF-RHF iter   1:  -254.47497476775800   -2.54475e+02   7.04529e-02 
   @DF-RHF iter   2:  -175.72453884742242    7.87504e+01   7.55290e-02 DIIS
   @DF-RHF iter   3:  -270.18022554624622   -9.44557e+01   5.13455e-02 DIIS
   @DF-RHF iter   4:  -268.59986897989597    1.58036e+00   6.03035e-02 DIIS
   @DF-RHF iter   5:  -324.33693913237607   -5.57371e+01   9.45057e-03 DIIS
   @DF-RHF iter   6:  -324.93760639318873   -6.00667e-01   3.40146e-03 DIIS
   @DF-RHF iter   7:  -325.01392457497161   -7.63182e-02   1.25718e-03 DIIS
   @DF-RHF iter   8:  -325.02568050224045   -1.17559e-02   3.61555e-04 DIIS
   @DF-RHF iter   9:  -325.02727073803544   -1.59024e-03   1.01807e-04 DIIS
   @DF-RHF iter  10:  -325.02736322880696   -9.24908e-05   4.23636e-05 DIIS
   @DF-RHF iter  11:  -325.02738555901965   -2.23302e-05   6.39237e-06 DIIS
   @DF-RHF iter  12:  -325.02738609780818   -5.38789e-07   2.01878e-06 DIIS
   @DF-RHF iter  13:  -325.02738614107091   -4.32627e-08   6.61431e-07 DIIS

  ==> Post-Iterations <==

    Orbital Energies (a.u.)
    -----------------------

    Doubly Occupied:                                                      

       1A    -20.554049     2A    -15.548835     3A    -11.266241  
       4A    -11.266088     5A    -11.244260     6A    -11.244015  
       7A    -11.240757     8A     -1.383453     9A     -1.232370  
      10A     -1.038523    11A     -0.981187    12A     -0.883055  
      13A     -0.868852    14A     -0.774745    15A     -0.683458  
      16A     -0.645522    17A     -0.643427    18A     -0.633830  
      19A     -0.628857    20A     -0.571723    21A     -0.557603  
      22A     -0.540993    23A     -0.527251    24A     -0.501682  
      25A     -0.484092    26A     -0.452385    27A     -0.407669  
      28A     -0.352885  

    Virtual:                                                              

      29A      0.234042    30A      0.258410    31A      0.273751  
      32A      0.284332    33A      0.307191    34A      0.312634  
      35A      0.319642    36A      0.323735    37A      0.337396  
      38A      0.339778    39A      0.348136    40A      0.361198  
      41A      0.386607    42A      0.428065    43A      0.440267  
      44A      0.448755    45A      0.468544    46A      0.483273  
      47A      0.720128    48A      0.732921    49A      0.748835  
      50A      0.784474    51A      0.796105    52A      0.806868  
      53A      0.833848    54A      0.843370    55A      0.885687  
      56A      0.908390    57A      0.934037    58A      0.970691  
      59A      0.978032    60A      1.062863    61A      1.063469  
      62A      1.105907    63A      1.111864    64A      1.127092  
      65A      1.135956    66A      1.151081    67A      1.167093  
      68A      1.178046    69A      1.192676    70A      1.197318  
      71A      1.202361    72A      1.232764    73A      1.247483  
      74A      1.250074    75A      1.300299    76A      1.322626  
      77A      1.408008    78A      1.472763    79A      1.528911  
      80A      1.633266    81A      1.651069    82A      1.651626  
      83A      1.670826    84A      1.690861    85A      1.723345  
      86A      1.874599    87A      1.902350    88A      1.986074  
      89A      2.002631    90A      2.072948    91A      2.154322  
      92A      2.192077    93A      2.204226    94A      2.229555  
      95A      2.299694    96A      2.319756    97A      2.352646  
      98A      2.374933    99A      2.404155   100A      2.421124  
     101A      2.450552   102A      2.485203   103A      2.503432  
     104A      2.542367   105A      2.594610   106A      2.619495  
     107A      2.655798   108A      2.681367   109A      2.774021  
     110A      2.785322   111A      2.808699   112A      2.896262  
     113A      2.914859   114A      2.945195   115A      3.085376  
     116A      3.136287   117A      3.159893   118A      3.222602  
     119A      3.254125   120A      3.327591   121A      4.395896  
     122A      4.508682   123A      4.644793   124A      4.700075  
     125A      4.769145   126A      4.941365   127A      4.953561  

    Final Occupation by Irrep:
              A 
    DOCC [    28 ]

  Energy converged.

  @DF-RHF Final Energy:  -325.02738614107091

   => Energetics <=

    Nuclear Repulsion Energy =            341.5226607470918907
    One-Electron Energy =               -1118.7843831992563537
    Two-Electron Energy =                 452.2343363110929317
    DFT Exchange-Correlation Energy =       0.0000000000000000
    Empirical Dispersion Energy =           0.0000000000000000
    PCM Polarization Energy =               0.0000000000000000
    EFP Energy =                            0.0000000000000000
    Total Energy =                       -325.0273861410715313

    Alert: EFP and PCM quantities not currently incorporated into SCF psivars.

Properties will be evaluated at   0.000000,   0.000000,   0.000000 Bohr
  ==> Properties <==


Properties computed using the SCF density matrix

  Nuclear Dipole Moment: (a.u.)
     X:     4.6394      Y:     0.1317      Z:     0.2280

  Electronic Dipole Moment: (a.u.)
     X:    -4.0785      Y:    -0.1625      Z:    -0.2003

  Dipole Moment: (a.u.)
     X:     0.5609      Y:    -0.0308      Z:     0.0277     Total:     0.5624

  Dipole Moment: (Debye)
     X:     1.4255      Y:    -0.0783      Z:     0.0703     Total:     1.4294


  Saving occupied orbitals to File 180.

*** tstop() called on cx1-3-15-4.cx1.hpc.ic.ac.uk at Tue Jul  5 16:34:03 2016
Module time:
	user time   =      11.79 seconds =       0.20 minutes
	system time =       0.06 seconds =       0.00 minutes
	total time  =         12 seconds =       0.20 minutes
Total time:
	user time   =      11.79 seconds =       0.20 minutes
	system time =       0.06 seconds =       0.00 minutes
	total time  =         12 seconds =       0.20 minutes


Properties will be evaluated at   0.000000,   0.000000,   0.000000 Bohr

Properties computed using the  density matrix

  Nuclear Dipole Moment: (a.u.)
     X:     4.6394      Y:     0.1317      Z:     0.2280

  Electronic Dipole Moment: (a.u.)
     X:    -4.0785      Y:    -0.1625      Z:    -0.2003

  Dipole Moment: (a.u.)
     X:     0.5609      Y:    -0.0308      Z:     0.0277     Total:     0.5624

  Dipole Moment: (Debye)
     X:     1.4255      Y:    -0.0783      Z:     0.0703     Total:     1.4294

  Quadrupole Moment: (Debye Ang)
    XX:   -46.8636     YY:   -45.3847     ZZ:   -40.1146
    XY:     1.7584     XZ:    -1.1361     YZ:     1.8545

  Traceless Quadrupole Moment: (Debye Ang)
    XX:    -2.7427     YY:    -1.2637     ZZ:     4.0064
    XY:     1.7584     XZ:    -1.1361     YZ:     1.8545

  Mulliken Charges: (a.u.)
   Center  Symbol    Alpha    Beta     Spin     Total
       1     H     0.41477  0.41477  0.00000  0.17046
       2     C     3.14007  3.14007  0.00000 -0.28015
       3     N     3.78767  3.78767  0.00000 -0.57535
       4     H     0.41750  0.41750  0.00000  0.16500
       5     H     0.43131  0.43131  0.00000  0.13739
       6     C     3.06886  3.06886  0.00000 -0.13772
       7     C     3.06849  3.06849  0.00000 -0.13697
       8     H     0.42859  0.42859  0.00000  0.14283
       9     H     0.41667  0.41667  0.00000  0.16667
      10     C     2.99771  2.99771  0.00000  0.00458
      11     H     0.41651  0.41651  0.00000  0.16698
      12     H     0.42786  0.42786  0.00000  0.14429
      13     C     2.99762  2.99762  0.00000  0.00476
      14     H     0.41333  0.41333  0.00000  0.17334
      15     H     0.42394  0.42394  0.00000  0.15211
      16     O     4.31198  4.31198  0.00000 -0.62397
      17     H     0.41326  0.41326  0.00000  0.17348
      18     H     0.42386  0.42386  0.00000  0.15227

   Total alpha = 28.00000, Total beta = 28.00000, Total charge = -0.00000


*** PSI4 exiting successfully. Buy a developer a beer!
