    -----------------------------------------------------------------------
          Psi4: An Open-Source Ab Initio Electronic Structure Package
                              Psi4 (no tag) Driver

                          Git: Rev {detached?}  

    J. M. Turney, A. C. Simmonett, R. M. Parrish, E. G. Hohenstein,
    F. A. Evangelista, J. T. Fermann, B. J. Mintz, L. A. Burns, J. J. Wilke,
    M. L. Abrams, N. J. Russ, M. L. Leininger, C. L. Janssen, E. T. Seidl,
    W. D. Allen, H. F. Schaefer, R. A. King, E. F. Valeev, C. D. Sherrill,
    and T. D. Crawford, WIREs Comput. Mol. Sci. 2, 556-565 (2012)
    (doi: 10.1002/wcms.93)

                         Additional Contributions by
    A. E. DePrince, M. Saitow, U. Bozkaya, A. Yu. Sokolov
    -----------------------------------------------------------------------


    Psi4 started on: Tue Jul  5 16:52:56 2016

    Process ID:  15282
    PSI4DATADIR: /export131/home/mjharvey/miniconda3/share
    Memory level set to 256.000 MB

  ==> Input File <==

--------------------------------------------------------------------------
set {
	reference rhf
	basis 6-31G*
}


set_num_threads( 1 )
memory 2 gb

molecule MOL {
0 1

H	 -3.420663	 1.227371	 -1.044276
O	 -3.452007	 0.283848	 -0.965577
C	 -3.181085	 -0.079926	 0.364119
C	 -1.765924	 0.277073	 0.805136
H	 -3.327791	 -1.152017	 0.410903
H	 -3.905698	 0.375695	 1.036898
C	 -0.677594	 -0.417312	 -0.014550
H	 -1.637766	 1.358238	 0.744969
H	 -1.659588	 0.017670	 1.857098
C	 0.738335	 -0.034840	 0.421385
H	 -0.814977	 -0.178223	 -1.064632
H	 -0.802730	 -1.495410	 0.071702
C	 1.822265	 -0.738362	 -0.399735
H	 0.853533	 1.043532	 0.342250
H	 0.871597	 -0.279636	 1.474438
C	 1.896146	 -2.256253	 -0.197988
H	 2.791079	 -0.298505	 -0.168176
H	 1.643996	 -0.538994	 -1.454386
C	 2.778620	 -2.989994	 -1.209555
H	 0.888606	 -2.660780	 -0.257246
H	 2.248610	 -2.468376	 0.809472
H	 2.457169	 -2.786246	 -2.227540
H	 2.728774	 -4.063827	 -1.057124
H	 3.820427	 -2.698477	 -1.126963

	symmetry c1
}
set optking {
	frozen_dihedral = ("
		20 16 13 17,
		13 10 7 11,
		11 7 4 3,
		1 2 3 5,
		7 4 3 2
	")
}

ee = energy('scf')
oeprop('DIPOLE', 'QUADRUPOLE', 'MULLIKEN_CHARGES')
f=open( 'psi4out.xyz', 'w' )
f.write( "24  " )
f.write( str(ee) + "\n" )
f.write( MOL.save_string_xyz() )
f.close()
--------------------------------------------------------------------------

  Memory set to   2.000 GiB by Python script.

*** tstart() called on cx1-1-3-2.cx1.hpc.ic.ac.uk
*** at Tue Jul  5 16:52:56 2016


         ---------------------------------------------------------
                                   SCF
            by Justin Turney, Rob Parrish, and Andy Simmonett
                              RHF Reference
                        1 Threads,   2000 MiB Core
         ---------------------------------------------------------

  ==> Geometry <==

    Molecular point group: c1
    Full point group: C1

    Geometry (in Angstrom), charge = 0, multiplicity = 1:

       Center              X                  Y                   Z               Mass       
    ------------   -----------------  -----------------  -----------------  -----------------
           H         -3.135359932287     1.959780351116    -0.873038463759     1.007825032070
           O         -3.166703932287     1.016257351116    -0.794339463759    15.994914619560
           C         -2.895781932287     0.652483351116     0.535356536241    12.000000000000
           C         -1.480620932287     1.009482351116     0.976373536241    12.000000000000
           H         -3.042487932287    -0.419607648884     0.582140536241     1.007825032070
           H         -3.620394932287     1.108104351116     1.208135536241     1.007825032070
           C         -0.392290932287     0.315097351116     0.156687536241    12.000000000000
           H         -1.352462932287     2.090647351116     0.916206536241     1.007825032070
           H         -1.374284932287     0.750079351116     2.028335536241     1.007825032070
           C          1.023638067713     0.697569351116     0.592622536241    12.000000000000
           H         -0.529673932287     0.554186351116    -0.893394463759     1.007825032070
           H         -0.517426932287    -0.763000648884     0.242939536241     1.007825032070
           C          2.107568067713    -0.005952648884    -0.228497463759    12.000000000000
           H          1.138836067713     1.775941351116     0.513487536241     1.007825032070
           H          1.156900067713     0.452773351116     1.645675536241     1.007825032070
           C          2.181449067713    -1.523843648884    -0.026750463759    12.000000000000
           H          3.076382067713     0.433904351116     0.003061536241     1.007825032070
           H          1.929299067713     0.193415351116    -1.283148463759     1.007825032070
           C          3.063923067713    -2.257584648884    -1.038317463759    12.000000000000
           H          1.173909067713    -1.928370648884    -0.086008463759     1.007825032070
           H          2.533913067713    -1.735966648884     0.980709536241     1.007825032070
           H          2.742472067713    -2.053836648884    -2.056302463759     1.007825032070
           H          3.014077067713    -3.331417648884    -0.885886463759     1.007825032070
           H          4.105730067713    -1.966067648884    -0.955725463759     1.007825032070

  Running in c1 symmetry.

  Rotational constants: A =      0.14301  B =      0.02188  C =      0.02062 [cm^-1]
  Rotational constants: A =   4287.46484  B =    656.03805  C =    618.02742 [MHz]
  Nuclear repulsion =  386.966405954012032

  Charge       = 0
  Multiplicity = 1
  Electrons    = 66
  Nalpha       = 33
  Nbeta        = 33

  ==> Algorithm <==

  SCF Algorithm Type is DF.
  DIIS enabled.
  MOM disabled.
  Fractional occupation disabled.
  Guess Type is CORE.
  Energy threshold   = 1.00e-06
  Density threshold  = 1.00e-06
  Integral threshold = 0.00e+00

  ==> Primary Basis <==

  Basis Set: 6-31G*
    Number of shells: 80
    Number of basis function: 152
    Number of Cartesian functions: 152
    Spherical Harmonics?: false
    Max angular momentum: 2

  ==> Pre-Iterations <==

   -------------------------------------------------------
    Irrep   Nso     Nmo     Nalpha   Nbeta   Ndocc  Nsocc
   -------------------------------------------------------
     A        152     152       0       0       0       0
   -------------------------------------------------------
    Total     152     152      33      33      33       0
   -------------------------------------------------------

 OEINTS: Overlap, kinetic, potential, dipole, and quadrupole integrals
         stored in file 35.

  ==> Integral Setup <==

  ==> DFJK: Density-Fitted J/K Matrices <==

    J tasked:                  Yes
    K tasked:                  Yes
    wK tasked:                  No
    OpenMP threads:              1
    Integrals threads:           1
    Memory (MB):              1430
    Algorithm:                Core
    Integral Cache:           NONE
    Schwarz Cutoff:          1E-12
    Fitting Condition:       1E-12

   => Auxiliary Basis Set <=

  Basis Set: 
    Number of shells: 336
    Number of basis function: 1048
    Number of Cartesian functions: 1048
    Spherical Harmonics?: false
    Max angular momentum: 3

  Minimum eigenvalue in the overlap matrix is 3.1895541780E-03.
  Using Symmetric Orthogonalization.
  SCF Guess: Core (One-Electron) Hamiltonian.

  ==> Iterations <==

                           Total Energy        Delta E     RMS |[F,P]|

   @DF-RHF iter   1:  -266.36513857582128   -2.66365e+02   6.14411e-02 
   @DF-RHF iter   2:   -43.38306379968498    2.22982e+02   8.19804e-02 DIIS
   @DF-RHF iter   3:  -238.55609793687080   -1.95173e+02   4.92676e-02 DIIS
   @DF-RHF iter   4:  -213.37014983509295    2.51859e+01   6.28928e-02 DIIS
   @DF-RHF iter   5:  -341.32812186510881   -1.27958e+02   1.69182e-02 DIIS
   @DF-RHF iter   6:  -339.01292273109590    2.31520e+00   2.39720e-02 DIIS
   @DF-RHF iter   7:  -349.00291565596461   -9.98999e+00   4.22117e-03 DIIS
   @DF-RHF iter   8:  -349.20846508549204   -2.05549e-01   1.66084e-03 DIIS
   @DF-RHF iter   9:  -349.23851104993406   -3.00460e-02   6.82773e-04 DIIS
   @DF-RHF iter  10:  -349.24525624883250   -6.74520e-03   1.96041e-04 DIIS
   @DF-RHF iter  11:  -349.24591933618473   -6.63087e-04   5.21759e-05 DIIS
   @DF-RHF iter  12:  -349.24596969857561   -5.03624e-05   1.69428e-05 DIIS
   @DF-RHF iter  13:  -349.24597667511972   -6.97654e-06   3.53063e-06 DIIS
   @DF-RHF iter  14:  -349.24597693548827   -2.60369e-07   1.03184e-06 DIIS
   @DF-RHF iter  15:  -349.24597695513074   -1.96425e-08   2.52755e-07 DIIS

  ==> Post-Iterations <==

    Orbital Energies (a.u.)
    -----------------------

    Doubly Occupied:                                                      

       1A    -20.553655     2A    -11.267771     3A    -11.217486  
       4A    -11.213281     5A    -11.212818     6A    -11.211340  
       7A    -11.210498     8A    -11.207144     9A     -1.360247  
      10A     -1.089453    11A     -1.046294    12A     -0.987409  
      13A     -0.913709    14A     -0.845128    15A     -0.809374  
      16A     -0.774511    17A     -0.680451    18A     -0.648812  
      19A     -0.629811    20A     -0.611495    21A     -0.602836  
      22A     -0.579271    23A     -0.560249    24A     -0.544559  
      25A     -0.519517    26A     -0.505923    27A     -0.493426  
      28A     -0.474821    29A     -0.470069    30A     -0.461003  
      31A     -0.454974    32A     -0.444139    33A     -0.420338  

    Virtual:                                                              

      34A      0.221250    35A      0.237382    36A      0.256790  
      37A      0.257870    38A      0.274174    39A      0.288023  
      40A      0.299131    41A      0.318562    42A      0.319939  
      43A      0.324222    44A      0.338763    45A      0.343527  
      46A      0.353732    47A      0.356389    48A      0.358182  
      49A      0.389895    50A      0.401474    51A      0.403712  
      52A      0.429644    53A      0.443298    54A      0.460676  
      55A      0.476168    56A      0.491360    57A      0.699563  
      58A      0.706028    59A      0.719397    60A      0.739877  
      61A      0.762110    62A      0.770030    63A      0.796971  
      64A      0.812492    65A      0.834892    66A      0.882973  
      67A      0.895531    68A      0.928226    69A      0.937414  
      70A      0.968702    71A      0.987716    72A      1.008892  
      73A      1.062963    74A      1.069648    75A      1.074790  
      76A      1.092923    77A      1.136647    78A      1.147738  
      79A      1.154496    80A      1.164721    81A      1.169743  
      82A      1.182411    83A      1.193872    84A      1.196541  
      85A      1.204118    86A      1.207653    87A      1.217639  
      88A      1.222102    89A      1.242686    90A      1.246767  
      91A      1.266461    92A      1.276577    93A      1.320288  
      94A      1.330040    95A      1.348260    96A      1.413114  
      97A      1.435885    98A      1.465407    99A      1.589484  
     100A      1.657486   101A      1.697491   102A      1.719255  
     103A      1.731897   104A      1.807035   105A      1.842381  
     106A      1.856612   107A      1.940431   108A      1.966235  
     109A      1.993479   110A      2.042455   111A      2.051507  
     112A      2.160630   113A      2.168760   114A      2.177066  
     115A      2.216744   116A      2.240708   117A      2.266068  
     118A      2.273059   119A      2.291574   120A      2.317685  
     121A      2.352942   122A      2.356222   123A      2.426261  
     124A      2.459287   125A      2.493915   126A      2.512244  
     127A      2.594982   128A      2.618133   129A      2.631142  
     130A      2.678241   131A      2.693044   132A      2.715400  
     133A      2.746361   134A      2.785871   135A      2.802175  
     136A      2.826874   137A      2.881644   138A      2.912381  
     139A      2.990159   140A      3.030870   141A      3.058570  
     142A      3.130409   143A      3.180198   144A      3.224428  
     145A      4.180586   146A      4.554355   147A      4.622654  
     148A      4.721138   149A      4.798779   150A      4.847502  
     151A      4.931923   152A      5.011282  

    Final Occupation by Irrep:
              A 
    DOCC [    33 ]

  Energy converged.

  @DF-RHF Final Energy:  -349.24597695513074

   => Energetics <=

    Nuclear Repulsion Energy =            386.9664059540120320
    One-Electron Energy =               -1240.3810778669376305
    Two-Electron Energy =                 504.1686949577938890
    DFT Exchange-Correlation Energy =       0.0000000000000000
    Empirical Dispersion Energy =           0.0000000000000000
    PCM Polarization Energy =               0.0000000000000000
    EFP Energy =                            0.0000000000000000
    Total Energy =                       -349.2459769551316526

    Alert: EFP and PCM quantities not currently incorporated into SCF psivars.

Properties will be evaluated at   0.000000,   0.000000,   0.000000 Bohr
  ==> Properties <==


Properties computed using the SCF density matrix

  Nuclear Dipole Moment: (a.u.)
     X:     6.8278      Y:    -2.6945      Z:     1.0154

  Electronic Dipole Moment: (a.u.)
     X:    -6.6657      Y:     3.1411      Z:    -0.5161

  Dipole Moment: (a.u.)
     X:     0.1620      Y:     0.4466      Z:     0.4993     Total:     0.6892

  Dipole Moment: (Debye)
     X:     0.4119      Y:     1.1352      Z:     1.2690     Total:     1.7518


  Saving occupied orbitals to File 180.

*** tstop() called on cx1-1-3-2.cx1.hpc.ic.ac.uk at Tue Jul  5 16:53:21 2016
Module time:
	user time   =      24.14 seconds =       0.40 minutes
	system time =       0.24 seconds =       0.00 minutes
	total time  =         25 seconds =       0.42 minutes
Total time:
	user time   =      24.14 seconds =       0.40 minutes
	system time =       0.24 seconds =       0.00 minutes
	total time  =         25 seconds =       0.42 minutes


Properties will be evaluated at   0.000000,   0.000000,   0.000000 Bohr

Properties computed using the  density matrix

  Nuclear Dipole Moment: (a.u.)
     X:     6.8278      Y:    -2.6945      Z:     1.0154

  Electronic Dipole Moment: (a.u.)
     X:    -6.6657      Y:     3.1411      Z:    -0.5161

  Dipole Moment: (a.u.)
     X:     0.1620      Y:     0.4466      Z:     0.4993     Total:     0.6892

  Dipole Moment: (Debye)
     X:     0.4119      Y:     1.1352      Z:     1.2690     Total:     1.7518

  Quadrupole Moment: (Debye Ang)
    XX:   -57.2144     YY:   -48.9913     ZZ:   -54.5904
    XY:    -3.1967     XZ:    -3.8464     YZ:    -0.9437

  Traceless Quadrupole Moment: (Debye Ang)
    XX:    -3.6157     YY:     4.6074     ZZ:    -0.9917
    XY:    -3.1967     XZ:    -3.8464     YZ:    -0.9437

  Mulliken Charges: (a.u.)
   Center  Symbol    Alpha    Beta     Spin     Total
       1     H     0.28336  0.28336  0.00000  0.43327
       2     O     4.36832  4.36832  0.00000 -0.73665
       3     C     2.99608  2.99608  0.00000  0.00785
       4     C     3.16830  3.16830  0.00000 -0.33660
       5     H     0.41643  0.41643  0.00000  0.16715
       6     H     0.42820  0.42820  0.00000  0.14359
       7     C     3.15498  3.15498  0.00000 -0.30995
       8     H     0.42848  0.42848  0.00000  0.14305
       9     H     0.42232  0.42232  0.00000  0.15536
      10     C     3.15329  3.15329  0.00000 -0.30658
      11     H     0.41225  0.41225  0.00000  0.17550
      12     H     0.42158  0.42158  0.00000  0.15684
      13     C     3.15241  3.15241  0.00000 -0.30483
      14     H     0.42214  0.42214  0.00000  0.15572
      15     H     0.42526  0.42526  0.00000  0.14947
      16     C     3.15428  3.15428  0.00000 -0.30857
      17     H     0.42221  0.42221  0.00000  0.15557
      18     H     0.42421  0.42421  0.00000  0.15159
      19     C     3.23862  3.23862  0.00000 -0.47724
      20     H     0.42089  0.42089  0.00000  0.15823
      21     H     0.42363  0.42363  0.00000  0.15274
      22     H     0.42131  0.42131  0.00000  0.15739
      23     H     0.41965  0.41965  0.00000  0.16070
      24     H     0.42179  0.42179  0.00000  0.15641

   Total alpha = 33.00000, Total beta = 33.00000, Total charge = -0.00000


*** PSI4 exiting successfully. Buy a developer a beer!
