    -----------------------------------------------------------------------
          Psi4: An Open-Source Ab Initio Electronic Structure Package
                              Psi4 (no tag) Driver

                          Git: Rev {detached?}  

    J. M. Turney, A. C. Simmonett, R. M. Parrish, E. G. Hohenstein,
    F. A. Evangelista, J. T. Fermann, B. J. Mintz, L. A. Burns, J. J. Wilke,
    M. L. Abrams, N. J. Russ, M. L. Leininger, C. L. Janssen, E. T. Seidl,
    W. D. Allen, H. F. Schaefer, R. A. King, E. F. Valeev, C. D. Sherrill,
    and T. D. Crawford, WIREs Comput. Mol. Sci. 2, 556-565 (2012)
    (doi: 10.1002/wcms.93)

                         Additional Contributions by
    A. E. DePrince, M. Saitow, U. Bozkaya, A. Yu. Sokolov
    -----------------------------------------------------------------------


    Psi4 started on: Tue Jul  5 16:33:12 2016

    Process ID:  17156
    PSI4DATADIR: /export131/home/mjharvey/miniconda3/share
    Memory level set to 256.000 MB

  ==> Input File <==

--------------------------------------------------------------------------
set {
	reference rhf
	basis 6-31G*
}


set_num_threads( 1 )
memory 2 gb

molecule MOL {
0 1

O	 -0.682937	 1.318834	 -0.186099
C	 -0.860635	 0.152188	 -0.042321
C	 -2.173363	 -0.477127	 0.338347
O	 0.083258	 -0.765189	 -0.202595
H	 -2.477673	 -1.180929	 -0.427595
H	 -2.923125	 0.290956	 0.455536
H	 -2.058825	 -1.029004	 1.264191
C	 1.391937	 -0.334737	 -0.569838
C	 1.986633	 -1.220382	 -1.649012
H	 2.018086	 -0.313090	 0.309144
H	 1.254134	 0.674736	 -0.929664
H	 2.948214	 -0.824138	 -1.960595
H	 2.136905	 -2.227878	 -1.281944
H	 1.335436	 -1.255133	 -2.515701

	symmetry c1
}
set optking {
	frozen_dihedral = ("
		8 4 2 1
	")
}

ee = energy('scf')
oeprop('DIPOLE', 'QUADRUPOLE', 'MULLIKEN_CHARGES')
f=open( 'psi4out.xyz', 'w' )
f.write( "14  " )
f.write( str(ee) + "\n" )
f.write( MOL.save_string_xyz() )
f.close()
--------------------------------------------------------------------------

  Memory set to   2.000 GiB by Python script.

*** tstart() called on cx1-1-2-4.cx1.hpc.ic.ac.uk
*** at Tue Jul  5 16:33:12 2016


         ---------------------------------------------------------
                                   SCF
            by Justin Turney, Rob Parrish, and Andy Simmonett
                              RHF Reference
                        1 Threads,   2000 MiB Core
         ---------------------------------------------------------

  ==> Geometry <==

    Molecular point group: c1
    Full point group: C1

    Geometry (in Angstrom), charge = 0, multiplicity = 1:

       Center              X                  Y                   Z               Mass       
    ------------   -----------------  -----------------  -----------------  -----------------
           O         -0.646523195901     1.541605380096     0.204775466128    15.994914619560
           C         -0.824221195901     0.374959380096     0.348553466128    12.000000000000
           C         -2.136949195901    -0.254355619904     0.729221466128    12.000000000000
           O          0.119671804099    -0.542417619904     0.188279466128    15.994914619560
           H         -2.441259195901    -0.958157619904    -0.036720533872     1.007825032070
           H         -2.886711195901     0.513727380096     0.846410466128     1.007825032070
           H         -2.022411195901    -0.806232619904     1.655065466128     1.007825032070
           C          1.428350804099    -0.111965619904    -0.178963533872    12.000000000000
           C          2.023046804099    -0.997610619904    -1.258137533872    12.000000000000
           H          2.054499804099    -0.090318619904     0.700018466128     1.007825032070
           H          1.290547804099     0.897507380096    -0.538789533872     1.007825032070
           H          2.984627804099    -0.601366619904    -1.569720533872     1.007825032070
           H          2.173318804099    -2.005106619904    -0.891069533872     1.007825032070
           H          1.371849804099    -1.032361619904    -2.124826533872     1.007825032070

  Running in c1 symmetry.

  Rotational constants: A =      0.27632  B =      0.07058  C =      0.06037 [cm^-1]
  Rotational constants: A =   8283.81662  B =   2115.85449  C =   1809.88718 [MHz]
  Nuclear repulsion =  245.711324396501169

  Charge       = 0
  Multiplicity = 1
  Electrons    = 48
  Nalpha       = 24
  Nbeta        = 24

  ==> Algorithm <==

  SCF Algorithm Type is DF.
  DIIS enabled.
  MOM disabled.
  Fractional occupation disabled.
  Guess Type is CORE.
  Energy threshold   = 1.00e-06
  Density threshold  = 1.00e-06
  Integral threshold = 0.00e+00

  ==> Primary Basis <==

  Basis Set: 6-31G*
    Number of shells: 52
    Number of basis function: 106
    Number of Cartesian functions: 106
    Spherical Harmonics?: false
    Max angular momentum: 2

  ==> Pre-Iterations <==

   -------------------------------------------------------
    Irrep   Nso     Nmo     Nalpha   Nbeta   Ndocc  Nsocc
   -------------------------------------------------------
     A        106     106       0       0       0       0
   -------------------------------------------------------
    Total     106     106      24      24      24       0
   -------------------------------------------------------

 OEINTS: Overlap, kinetic, potential, dipole, and quadrupole integrals
         stored in file 35.

  ==> Integral Setup <==

  ==> DFJK: Density-Fitted J/K Matrices <==

    J tasked:                  Yes
    K tasked:                  Yes
    wK tasked:                  No
    OpenMP threads:              1
    Integrals threads:           1
    Memory (MB):              1430
    Algorithm:                Core
    Integral Cache:           NONE
    Schwarz Cutoff:          1E-12
    Fitting Condition:       1E-12

   => Auxiliary Basis Set <=

  Basis Set: 
    Number of shells: 216
    Number of basis function: 686
    Number of Cartesian functions: 686
    Spherical Harmonics?: false
    Max angular momentum: 3

  Minimum eigenvalue in the overlap matrix is 3.9254299592E-03.
  Using Symmetric Orthogonalization.
  SCF Guess: Core (One-Electron) Hamiltonian.

  ==> Iterations <==

                           Total Energy        Delta E     RMS |[F,P]|

   @DF-RHF iter   1:  -234.37688530701618   -2.34377e+02   8.25041e-02 
   @DF-RHF iter   2:  -196.24785414146535    3.81290e+01   6.33527e-02 DIIS
   @DF-RHF iter   3:  -271.92117872403810   -7.56733e+01   5.33102e-02 DIIS
   @DF-RHF iter   4:  -291.65091997453442   -1.97297e+01   3.57814e-02 DIIS
   @DF-RHF iter   5:  -305.08662380979968   -1.34357e+01   1.15907e-02 DIIS
   @DF-RHF iter   6:  -305.81167552325655   -7.25052e-01   3.35130e-03 DIIS
   @DF-RHF iter   7:  -305.85893740615586   -4.72619e-02   1.44849e-03 DIIS
   @DF-RHF iter   8:  -305.86779053093665   -8.85312e-03   8.65439e-04 DIIS
   @DF-RHF iter   9:  -305.87143710664532   -3.64658e-03   4.26316e-04 DIIS
   @DF-RHF iter  10:  -305.87255572822187   -1.11862e-03   1.06340e-04 DIIS
   @DF-RHF iter  11:  -305.87264369579714   -8.79676e-05   4.17057e-05 DIIS
   @DF-RHF iter  12:  -305.87265360653794   -9.91074e-06   1.31676e-05 DIIS
   @DF-RHF iter  13:  -305.87265523332962   -1.62679e-06   2.72519e-06 DIIS
   @DF-RHF iter  14:  -305.87265533589073   -1.02561e-07   8.71769e-07 DIIS

  ==> Post-Iterations <==

    Orbital Energies (a.u.)
    -----------------------

    Doubly Occupied:                                                      

       1A    -20.601128     2A    -20.544444     3A    -11.376629  
       4A    -11.281677     5A    -11.233727     6A    -11.223411  
       7A     -1.467559     8A     -1.362751     9A     -1.056389  
      10A     -1.000554    11A     -0.874977    12A     -0.774733  
      13A     -0.698042    14A     -0.683705    15A     -0.661365  
      16A     -0.611961    17A     -0.581484    18A     -0.564839  
      19A     -0.561789    20A     -0.536605    21A     -0.514733  
      22A     -0.491385    23A     -0.451363    24A     -0.439005  

    Virtual:                                                              

      25A      0.198221    26A      0.244032    27A      0.258146  
      28A      0.295114    29A      0.297897    30A      0.312510  
      31A      0.321353    32A      0.332298    33A      0.349321  
      34A      0.361752    35A      0.402261    36A      0.417885  
      37A      0.502114    38A      0.547782    39A      0.698466  
      40A      0.726630    41A      0.746449    42A      0.760119  
      43A      0.779302    44A      0.801202    45A      0.824360  
      46A      0.847104    47A      0.889213    48A      0.958990  
      49A      0.964638    50A      0.997173    51A      1.057786  
      52A      1.087390    53A      1.131953    54A      1.143585  
      55A      1.150149    56A      1.170272    57A      1.193199  
      58A      1.202139    59A      1.208511    60A      1.235850  
      61A      1.244886    62A      1.287366    63A      1.374421  
      64A      1.396932    65A      1.405094    66A      1.438422  
      67A      1.597540    68A      1.654120    69A      1.715713  
      70A      1.774206    71A      1.821991    72A      1.838226  
      73A      1.884693    74A      1.994471    75A      2.038433  
      76A      2.054338    77A      2.098705    78A      2.145949  
      79A      2.204344    80A      2.238597    81A      2.266339  
      82A      2.304971    83A      2.387732    84A      2.408449  
      85A      2.492581    86A      2.530991    87A      2.544995  
      88A      2.572461    89A      2.645507    90A      2.694991  
      91A      2.704001    92A      2.750501    93A      2.805306  
      94A      2.970142    95A      2.981550    96A      3.069425  
      97A      3.160501    98A      3.345909    99A      3.413263  
     100A      3.558105   101A      4.400060   102A      4.529322  
     103A      4.569223   104A      4.662151   105A      4.816078  
     106A      4.911897  

    Final Occupation by Irrep:
              A 
    DOCC [    24 ]

  Energy converged.

  @DF-RHF Final Energy:  -305.87265533589073

   => Energetics <=

    Nuclear Repulsion Energy =            245.7113243965011691
    One-Electron Energy =                -903.9795627830010289
    Two-Electron Energy =                 352.3955830506087068
    DFT Exchange-Correlation Energy =       0.0000000000000000
    Empirical Dispersion Energy =           0.0000000000000000
    PCM Polarization Energy =               0.0000000000000000
    EFP Energy =                            0.0000000000000000
    Total Energy =                       -305.8726553358911815

    Alert: EFP and PCM quantities not currently incorporated into SCF psivars.

Properties will be evaluated at   0.000000,   0.000000,   0.000000 Bohr
  ==> Properties <==


Properties computed using the SCF density matrix

  Nuclear Dipole Moment: (a.u.)
     X:     2.3641      Y:    -3.8222      Z:    -1.8352

  Electronic Dipole Moment: (a.u.)
     X:    -2.2060      Y:     3.0291      Z:     1.8145

  Dipole Moment: (a.u.)
     X:     0.1581      Y:    -0.7931      Z:    -0.0207     Total:     0.8090

  Dipole Moment: (Debye)
     X:     0.4019      Y:    -2.0159      Z:    -0.0525     Total:     2.0563


  Saving occupied orbitals to File 180.

*** tstop() called on cx1-1-2-4.cx1.hpc.ic.ac.uk at Tue Jul  5 16:33:18 2016
Module time:
	user time   =       5.40 seconds =       0.09 minutes
	system time =       0.04 seconds =       0.00 minutes
	total time  =          6 seconds =       0.10 minutes
Total time:
	user time   =       5.40 seconds =       0.09 minutes
	system time =       0.04 seconds =       0.00 minutes
	total time  =          6 seconds =       0.10 minutes


Properties will be evaluated at   0.000000,   0.000000,   0.000000 Bohr

Properties computed using the  density matrix

  Nuclear Dipole Moment: (a.u.)
     X:     2.3641      Y:    -3.8222      Z:    -1.8352

  Electronic Dipole Moment: (a.u.)
     X:    -2.2060      Y:     3.0291      Z:     1.8145

  Dipole Moment: (a.u.)
     X:     0.1581      Y:    -0.7931      Z:    -0.0207     Total:     0.8090

  Dipole Moment: (Debye)
     X:     0.4019      Y:    -2.0159      Z:    -0.0525     Total:     2.0563

  Quadrupole Moment: (Debye Ang)
    XX:   -30.8040     YY:   -42.7888     ZZ:   -35.1035
    XY:     1.8688     XZ:    -1.3718     YZ:    -0.3243

  Traceless Quadrupole Moment: (Debye Ang)
    XX:     5.4281     YY:    -6.5567     ZZ:     1.1286
    XY:     1.8688     XZ:    -1.3718     YZ:    -0.3243

  Mulliken Charges: (a.u.)
   Center  Symbol    Alpha    Beta     Spin     Total
       1     O     4.28344  4.28344  0.00000 -0.56687
       2     C     2.62024  2.62024  0.00000  0.75953
       3     C     3.28195  3.28195  0.00000 -0.56391
       4     O     4.30825  4.30825  0.00000 -0.61649
       5     H     0.40041  0.40041  0.00000  0.19919
       6     H     0.39692  0.39692  0.00000  0.20616
       7     H     0.40005  0.40005  0.00000  0.19990
       8     C     3.01103  3.01103  0.00000 -0.02206
       9     C     3.24779  3.24779  0.00000 -0.49558
      10     H     0.41443  0.41443  0.00000  0.17114
      11     H     0.39434  0.39434  0.00000  0.21132
      12     H     0.41543  0.41543  0.00000  0.16913
      13     H     0.41300  0.41300  0.00000  0.17400
      14     H     0.41272  0.41272  0.00000  0.17456

   Total alpha = 24.00000, Total beta = 24.00000, Total charge = -0.00000


*** PSI4 exiting successfully. Buy a developer a beer!
