    -----------------------------------------------------------------------
          Psi4: An Open-Source Ab Initio Electronic Structure Package
                              Psi4 (no tag) Driver

                          Git: Rev {detached?}  

    J. M. Turney, A. C. Simmonett, R. M. Parrish, E. G. Hohenstein,
    F. A. Evangelista, J. T. Fermann, B. J. Mintz, L. A. Burns, J. J. Wilke,
    M. L. Abrams, N. J. Russ, M. L. Leininger, C. L. Janssen, E. T. Seidl,
    W. D. Allen, H. F. Schaefer, R. A. King, E. F. Valeev, C. D. Sherrill,
    and T. D. Crawford, WIREs Comput. Mol. Sci. 2, 556-565 (2012)
    (doi: 10.1002/wcms.93)

                         Additional Contributions by
    A. E. DePrince, M. Saitow, U. Bozkaya, A. Yu. Sokolov
    -----------------------------------------------------------------------


    Psi4 started on: Tue Jul  5 16:35:07 2016

    Process ID:  24068
    PSI4DATADIR: /export131/home/mjharvey/miniconda3/share
    Memory level set to 256.000 MB

  ==> Input File <==

--------------------------------------------------------------------------
set {
	reference rhf
	basis 6-31G*
}


set_num_threads( 1 )
memory 2 gb

molecule MOL {
0 1

O	 1.066834	 -2.032293	 1.712165
C	 0.275803	 -1.645901	 0.914452
C	 -1.147444	 -2.120194	 0.804999
O	 0.550821	 -0.724572	 0.000672
H	 -1.823175	 -1.281819	 0.928282
H	 -1.339790	 -2.865528	 1.562212
H	 -1.318951	 -2.538157	 -0.180127
C	 1.591107	 -1.018795	 -0.914489
H	 1.613027	 -0.289541	 -1.711397
H	 1.368452	 -1.997815	 -1.309069
H	 2.547628	 -1.025655	 -0.412131

	symmetry c1
}
set optking {
	frozen_dihedral = ("
		2 4 8 9
	")
}

ee = energy('scf')
oeprop('DIPOLE', 'QUADRUPOLE', 'MULLIKEN_CHARGES')
f=open( 'psi4out.xyz', 'w' )
f.write( "11  " )
f.write( str(ee) + "\n" )
f.write( MOL.save_string_xyz() )
f.close()
--------------------------------------------------------------------------

  Memory set to   2.000 GiB by Python script.

*** tstart() called on cx1-1-4-3.cx1.hpc.ic.ac.uk
*** at Tue Jul  5 16:35:08 2016


         ---------------------------------------------------------
                                   SCF
            by Justin Turney, Rob Parrish, and Andy Simmonett
                              RHF Reference
                        1 Threads,   2000 MiB Core
         ---------------------------------------------------------

  ==> Geometry <==

    Molecular point group: c1
    Full point group: C1

    Geometry (in Angstrom), charge = 0, multiplicity = 1:

       Center              X                  Y                   Z               Mass       
    ------------   -----------------  -----------------  -----------------  -----------------
           O          0.586488539472    -0.525052209004     1.226930304997    15.994914619560
           C         -0.204542460528    -0.138660209004     0.429217304997    12.000000000000
           C         -1.627789460528    -0.612953209004     0.319764304997    12.000000000000
           O          0.070475539472     0.782668790996    -0.484562695003    15.994914619560
           H         -2.303520460528     0.225421790996     0.443047304997     1.007825032070
           H         -1.820135460528    -1.358287209004     1.076977304997     1.007825032070
           H         -1.799296460528    -1.030916209004    -0.665361695003     1.007825032070
           C          1.110761539472     0.488445790996    -1.399723695003    12.000000000000
           H          1.132681539472     1.217699790996    -2.196631695003     1.007825032070
           H          0.888106539472    -0.490574209004    -1.794303695003     1.007825032070
           H          2.067282539472     0.481585790996    -0.897365695003     1.007825032070

  Running in c1 symmetry.

  Rotational constants: A =      0.30093  B =      0.14502  C =      0.10921 [cm^-1]
  Rotational constants: A =   9021.69990  B =   4347.73195  C =   3274.15755 [MHz]
  Nuclear repulsion =  183.136854790606691

  Charge       = 0
  Multiplicity = 1
  Electrons    = 40
  Nalpha       = 20
  Nbeta        = 20

  ==> Algorithm <==

  SCF Algorithm Type is DF.
  DIIS enabled.
  MOM disabled.
  Fractional occupation disabled.
  Guess Type is CORE.
  Energy threshold   = 1.00e-06
  Density threshold  = 1.00e-06
  Integral threshold = 0.00e+00

  ==> Primary Basis <==

  Basis Set: 6-31G*
    Number of shells: 42
    Number of basis function: 87
    Number of Cartesian functions: 87
    Spherical Harmonics?: false
    Max angular momentum: 2

  ==> Pre-Iterations <==

   -------------------------------------------------------
    Irrep   Nso     Nmo     Nalpha   Nbeta   Ndocc  Nsocc
   -------------------------------------------------------
     A         87      87       0       0       0       0
   -------------------------------------------------------
    Total      87      87      20      20      20       0
   -------------------------------------------------------

 OEINTS: Overlap, kinetic, potential, dipole, and quadrupole integrals
         stored in file 35.

  ==> Integral Setup <==

  ==> DFJK: Density-Fitted J/K Matrices <==

    J tasked:                  Yes
    K tasked:                  Yes
    wK tasked:                  No
    OpenMP threads:              1
    Integrals threads:           1
    Memory (MB):              1430
    Algorithm:                Core
    Integral Cache:           NONE
    Schwarz Cutoff:          1E-12
    Fitting Condition:       1E-12

   => Auxiliary Basis Set <=

  Basis Set: 
    Number of shells: 174
    Number of basis function: 555
    Number of Cartesian functions: 555
    Spherical Harmonics?: false
    Max angular momentum: 3

  Minimum eigenvalue in the overlap matrix is 3.9385999970E-03.
  Using Symmetric Orthogonalization.
  SCF Guess: Core (One-Electron) Hamiltonian.

  ==> Iterations <==

                           Total Energy        Delta E     RMS |[F,P]|

   @DF-RHF iter   1:  -212.30768746400517   -2.12308e+02   8.77767e-02 
   @DF-RHF iter   2:  -208.57615244474371    3.73154e+00   6.20425e-02 DIIS
   @DF-RHF iter   3:  -237.93877936591306   -2.93626e+01   6.95754e-02 DIIS
   @DF-RHF iter   4:  -255.79213906842406   -1.78534e+01   4.25886e-02 DIIS
   @DF-RHF iter   5:  -262.90014443144662   -7.10801e+00   2.78530e-02 DIIS
   @DF-RHF iter   6:  -265.76481626515590   -2.86467e+00   1.40467e-02 DIIS
   @DF-RHF iter   7:  -266.73731425567632   -9.72498e-01   4.02852e-03 DIIS
   @DF-RHF iter   8:  -266.80185222098100   -6.45380e-02   2.07474e-03 DIIS
   @DF-RHF iter   9:  -266.81759095949656   -1.57387e-02   4.96334e-04 DIIS
   @DF-RHF iter  10:  -266.81911107649944   -1.52012e-03   1.94093e-04 DIIS
   @DF-RHF iter  11:  -266.81932767052035   -2.16594e-04   9.52960e-05 DIIS
   @DF-RHF iter  12:  -266.81938332554319   -5.56550e-05   2.24818e-05 DIIS
   @DF-RHF iter  13:  -266.81938958261571   -6.25707e-06   8.10939e-06 DIIS
   @DF-RHF iter  14:  -266.81939027495366   -6.92338e-07   2.55261e-06 DIIS
   @DF-RHF iter  15:  -266.81939036404071   -8.90871e-08   8.07624e-07 DIIS

  ==> Post-Iterations <==

    Orbital Energies (a.u.)
    -----------------------

    Doubly Occupied:                                                      

       1A    -20.591038     2A    -20.553210     3A    -11.377718  
       4A    -11.291927     5A    -11.235367     6A     -1.466954  
       7A     -1.366516     8A     -1.031180     9A     -0.961277  
      10A     -0.779453    11A     -0.694346    12A     -0.683564  
      13A     -0.676708    14A     -0.605349    15A     -0.593646  
      16A     -0.570584    17A     -0.537941    18A     -0.499924  
      19A     -0.456367    20A     -0.441409  

    Virtual:                                                              

      21A      0.178483    22A      0.229945    23A      0.270659  
      24A      0.303432    25A      0.305509    26A      0.316887  
      27A      0.323424    28A      0.356202    29A      0.406451  
      30A      0.498928    31A      0.559036    32A      0.723942  
      33A      0.739837    34A      0.758014    35A      0.773414  
      36A      0.806339    37A      0.815683    38A      0.845547  
      39A      0.941347    40A      0.987912    41A      1.014540  
      42A      1.087447    43A      1.106433    44A      1.126810  
      45A      1.142414    46A      1.183464    47A      1.205939  
      48A      1.218779    49A      1.239017    50A      1.297075  
      51A      1.343761    52A      1.366788    53A      1.390196  
      54A      1.427532    55A      1.587380    56A      1.666426  
      57A      1.715861    58A      1.791053    59A      1.870930  
      60A      1.929460    61A      2.030076    62A      2.070625  
      63A      2.114502    64A      2.149404    65A      2.171574  
      66A      2.277067    67A      2.323819    68A      2.393845  
      69A      2.400984    70A      2.484165    71A      2.531655  
      72A      2.579012    73A      2.634486    74A      2.647882  
      75A      2.766674    76A      2.868296    77A      2.902526  
      78A      3.155212    79A      3.173962    80A      3.322825  
      81A      3.366494    82A      3.499969    83A      4.363609  
      84A      4.522349    85A      4.611367    86A      4.687581  
      87A      4.866823  

    Final Occupation by Irrep:
              A 
    DOCC [    20 ]

  Energy converged.

  @DF-RHF Final Energy:  -266.81939036404071

   => Energetics <=

    Nuclear Repulsion Energy =            183.1368547906066908
    One-Electron Energy =                -727.0835005685053147
    Two-Electron Energy =                 277.1272554138586770
    DFT Exchange-Correlation Energy =       0.0000000000000000
    Empirical Dispersion Energy =           0.0000000000000000
    PCM Polarization Energy =               0.0000000000000000
    EFP Energy =                            0.0000000000000000
    Total Energy =                       -266.8193903640399753

    Alert: EFP and PCM quantities not currently incorporated into SCF psivars.

Properties will be evaluated at   0.000000,   0.000000,   0.000000 Bohr
  ==> Properties <==


Properties computed using the SCF density matrix

  Nuclear Dipole Moment: (a.u.)
     X:    -1.7170      Y:    -0.8941      Z:    -3.7778

  Electronic Dipole Moment: (a.u.)
     X:     1.2945      Y:     0.8458      Z:     2.7246

  Dipole Moment: (a.u.)
     X:    -0.4225      Y:    -0.0483      Z:    -1.0533     Total:     1.1359

  Dipole Moment: (Debye)
     X:    -1.0738      Y:    -0.1229      Z:    -2.6772     Total:     2.8871


  Saving occupied orbitals to File 180.

*** tstop() called on cx1-1-4-3.cx1.hpc.ic.ac.uk at Tue Jul  5 16:35:12 2016
Module time:
	user time   =       3.51 seconds =       0.06 minutes
	system time =       0.04 seconds =       0.00 minutes
	total time  =          4 seconds =       0.07 minutes
Total time:
	user time   =       3.51 seconds =       0.06 minutes
	system time =       0.04 seconds =       0.00 minutes
	total time  =          4 seconds =       0.07 minutes


Properties will be evaluated at   0.000000,   0.000000,   0.000000 Bohr

Properties computed using the  density matrix

  Nuclear Dipole Moment: (a.u.)
     X:    -1.7170      Y:    -0.8941      Z:    -3.7778

  Electronic Dipole Moment: (a.u.)
     X:     1.2945      Y:     0.8458      Z:     2.7246

  Dipole Moment: (a.u.)
     X:    -0.4225      Y:    -0.0483      Z:    -1.0533     Total:     1.1359

  Dipole Moment: (Debye)
     X:    -1.0738      Y:    -0.1229      Z:    -2.6772     Total:     2.8871

  Quadrupole Moment: (Debye Ang)
    XX:   -27.5132     YY:   -30.9880     ZZ:   -30.3622
    XY:     2.0452     XZ:    -4.4875     YZ:     1.2768

  Traceless Quadrupole Moment: (Debye Ang)
    XX:     2.1080     YY:    -1.3669     ZZ:    -0.7411
    XY:     2.0452     XZ:    -4.4875     YZ:     1.2768

  Mulliken Charges: (a.u.)
   Center  Symbol    Alpha    Beta     Spin     Total
       1     O     4.26393  4.26393  0.00000 -0.52785
       2     C     2.62712  2.62712  0.00000  0.74576
       3     C     3.28327  3.28327  0.00000 -0.56653
       4     O     4.30431  4.30431  0.00000 -0.60862
       5     H     0.39814  0.39814  0.00000  0.20372
       6     H     0.39839  0.39839  0.00000  0.20322
       7     H     0.40538  0.40538  0.00000  0.18924
       8     C     3.09153  3.09153  0.00000 -0.18307
       9     H     0.40384  0.40384  0.00000  0.19231
      10     H     0.42034  0.42034  0.00000  0.15932
      11     H     0.40375  0.40375  0.00000  0.19250

   Total alpha = 20.00000, Total beta = 20.00000, Total charge =  0.00000


*** PSI4 exiting successfully. Buy a developer a beer!
