
    -----------------------------------------------------------------------
          Psi4: An Open-Source Ab Initio Electronic Structure Package
                               Psi4 1.1 release

                         Git: Rev {HEAD} add49b9 


    R. M. Parrish, L. A. Burns, D. G. A. Smith, A. C. Simmonett,
    A. E. DePrince III, E. G. Hohenstein, U. Bozkaya, A. Yu. Sokolov,
    R. Di Remigio, R. M. Richard, J. F. Gonthier, A. M. James,
    H. R. McAlexander, A. Kumar, M. Saitow, X. Wang, B. P. Pritchard,
    P. Verma, H. F. Schaefer III, K. Patkowski, R. A. King, E. F. Valeev,
    F. A. Evangelista, J. M. Turney, T. D. Crawford, and C. D. Sherrill,
    J. Chem. Theory Comput. in press (2017).
    (doi: 10.1021/acs.jctc.7b00174)

    -----------------------------------------------------------------------


    Psi4 started on: Tuesday, 12 December 2017 10:56AM

    Process ID:  23226
    PSIDATADIR: /shared/raimis/opt/miniconda/envs/htmd/share/psi4
    Memory:     500.0 MiB
    Threads:    1
    
  ==> Input File <==

--------------------------------------------------------------------------
set_num_threads(1)
set_memory(4203741184)

set { reference rks }
set { basis cc-pVDZ }

molecule MOL {
    0 1
    noreorient
    nocom
    symmetry c1
    O    1.141000   0.017000   0.083000
    C    2.558000   0.086000  -0.005000
    C    3.192000  -0.789000   1.067000
    O    4.610000  -0.719000   0.979000
    H    0.789000   0.590000  -0.620000
    H    2.874000   1.128000   0.115000
    H    2.871000  -0.243000  -1.001000
    H    2.876000  -1.830000   0.947000
    H    2.879000  -0.459000   2.064000
    H    4.861224  -1.183252   0.161539
}

set optking { frozen_dihedral = (" 2 3 4 10 ") }

energy, wfn = energy('B3LYP-D3', return_wfn=True)

import os
os.chdir(os.environ['HTMD_PSI4_WORKDIR'])

oeprop(wfn, 'DIPOLE', 'QUADRUPOLE', 'MULLIKEN_CHARGES')

with open('psi4out.xyz', 'w') as f:
    f.write('10 ' )
    f.write('%.12f\n' % energy)
    f.write(MOL.save_string_xyz())
--------------------------------------------------------------------------
  Threads set to 1 by Python driver.

  Memory set to   3.915 GiB by Python driver.

*** tstart() called on computer06
*** at Tue Dec 12 10:56:11 2017

   => Loading Basis Set <=

    Name: CC-PVDZ
    Role: ORBITAL
    Keyword: BASIS
    atoms 1, 4 entry O          line   190 file /shared/raimis/opt/miniconda/envs/htmd/share/psi4/basis/cc-pvdz.gbs 
    atoms 2-3  entry C          line   130 file /shared/raimis/opt/miniconda/envs/htmd/share/psi4/basis/cc-pvdz.gbs 
    atoms 5-10 entry H          line    20 file /shared/raimis/opt/miniconda/envs/htmd/share/psi4/basis/cc-pvdz.gbs 


         ---------------------------------------------------------
                                   SCF
            by Justin Turney, Rob Parrish, and Andy Simmonett
                              RKS Reference
                        1 Threads,   4009 MiB Core
         ---------------------------------------------------------

  ==> Geometry <==

    Molecular point group: c1
    Full point group: C1

    Geometry (in Angstrom), charge = 0, multiplicity = 1:

       Center              X                  Y                   Z               Mass       
    ------------   -----------------  -----------------  -----------------  -----------------
           O          1.141000000000     0.017000000000     0.083000000000    15.994914619560
           C          2.558000000000     0.086000000000    -0.005000000000    12.000000000000
           C          3.192000000000    -0.789000000000     1.067000000000    12.000000000000
           O          4.610000000000    -0.719000000000     0.979000000000    15.994914619560
           H          0.789000000000     0.590000000000    -0.620000000000     1.007825032070
           H          2.874000000000     1.128000000000     0.115000000000     1.007825032070
           H          2.871000000000    -0.243000000000    -1.001000000000     1.007825032070
           H          2.876000000000    -1.830000000000     0.947000000000     1.007825032070
           H          2.879000000000    -0.459000000000     2.064000000000     1.007825032070
           H          4.861224000000    -1.183252000000     0.161539000000     1.007825032070

  Running in c1 symmetry.

  Rotational constants: A =      0.81581  B =      0.02551  C =      0.02503 [cm^-1]
  Rotational constants: A =  24457.43571  B =    764.69990  C =    750.29585 [MHz]
  Nuclear repulsion =  129.836427986555606

  Charge       = 0
  Multiplicity = 1
  Electrons    = 34
  Nalpha       = 17
  Nbeta        = 17

  ==> Algorithm <==

  SCF Algorithm Type is DF.
  DIIS enabled.
  MOM disabled.
  Fractional occupation disabled.
  Guess Type is SAD.
  Energy threshold   = 1.00e-06
  Density threshold  = 1.00e-06
  Integral threshold = 0.00e+00

  ==> Primary Basis <==

  Basis Set: CC-PVDZ
    Blend: CC-PVDZ
    Number of shells: 42
    Number of basis function: 86
    Number of Cartesian functions: 90
    Spherical Harmonics?: true
    Max angular momentum: 2

  ==> DFT Potential <==

   => B3LYP Composite Functional <= 

    B3LYP Hybrid-GGA Exchange-Correlation Functional (VWN1-RPA)

    P.J. Stephens et. al., J. Phys. Chem., 98, 11623-11627, 1994

    Points   =           5000
    Deriv    =              1
    GGA      =           TRUE
    Meta     =          FALSE

    X_LRC        =          FALSE
    X_Hybrid     =           TRUE
    X_Alpha      =   2.000000E-01
    X_Omega      =   0.000000E+00
    C_LRC        =          FALSE
    C_Hybrid     =          FALSE
    C_Alpha      =   0.000000E+00
    C_Omega      =   0.000000E+00

   => Exchange Functionals <=

    0.8000    B3_X
    0.2000      HF 

   => Correlation Functionals <=

    0.1900 VWN3RPA_C
    0.8100   LYP_C

   => Molecular Quadrature <=

    Radial Scheme    =       TREUTLER
    Pruning Scheme   =           FLAT
    Nuclear Scheme   =       TREUTLER

    BS radius alpha  =              1
    Pruning alpha    =              1
    Radial Points    =             75
    Spherical Points =            302
    Total Points     =         222549
    Total Blocks     =            209
    Max Points       =           4988
    Max Functions    =             86

   => -D3ZERO: Empirical Dispersion <=

    Grimme's -D3 (zero-damping) Dispersion Correction
    Grimme S.; Antony J.; Ehrlich S.; Krieg H. (2010), J. Chem. Phys., 132: 154104

        S6 =   1.000000E+00
        S8 =   1.703000E+00
       SR6 =   1.261000E+00
    ALPHA6 =   1.400000E+01

   => Loading Basis Set <=

    Name: (CC-PVDZ AUX)
    Role: JKFIT
    Keyword: DF_BASIS_SCF
    atoms 1, 4 entry O          line   220 file /shared/raimis/opt/miniconda/envs/htmd/share/psi4/basis/cc-pvdz-jkfit.gbs 
    atoms 2-3  entry C          line   120 file /shared/raimis/opt/miniconda/envs/htmd/share/psi4/basis/cc-pvdz-jkfit.gbs 
    atoms 5-10 entry H          line    50 file /shared/raimis/opt/miniconda/envs/htmd/share/psi4/basis/cc-pvdz-jkfit.gbs 

  ==> Pre-Iterations <==

   -------------------------------------------------------
    Irrep   Nso     Nmo     Nalpha   Nbeta   Ndocc  Nsocc
   -------------------------------------------------------
     A         86      86       0       0       0       0
   -------------------------------------------------------
    Total      86      86      17      17      17       0
   -------------------------------------------------------

  ==> Integral Setup <==

  ==> DFJK: Density-Fitted J/K Matrices <==

    J tasked:                  Yes
    K tasked:                  Yes
    wK tasked:                  No
    OpenMP threads:              1
    Integrals threads:           1
    Memory (MB):              3006
    Algorithm:                Core
    Integral Cache:           NONE
    Schwarz Cutoff:          1E-12
    Fitting Condition:       1E-12

   => Auxiliary Basis Set <=

  Basis Set: (CC-PVDZ AUX)
    Blend: CC-PVDZ-JKFIT
    Number of shells: 150
    Number of basis function: 418
    Number of Cartesian functions: 474
    Spherical Harmonics?: true
    Max angular momentum: 3

  Minimum eigenvalue in the overlap matrix is 5.0550451449E-03.
  Using Symmetric Orthogonalization.

  SCF Guess: Superposition of Atomic Densities via on-the-fly atomic UHF.

  ==> Iterations <==

                           Total Energy        Delta E     RMS |[F,P]|

   @DF-RKS iter   0:  -231.02595592078433   -2.31026e+02   4.11616e-02 
   @DF-RKS iter   1:  -230.16824002045703    8.57716e-01   5.56033e-03 
   @DF-RKS iter   2:  -230.10831198667429    5.99280e-02   7.48459e-03 DIIS
   @DF-RKS iter   3:  -230.25727485174312   -1.48963e-01   6.92386e-04 DIIS
   @DF-RKS iter   4:  -230.25859489163065   -1.32004e-03   2.37318e-04 DIIS
   @DF-RKS iter   5:  -230.25879468021131   -1.99789e-04   4.79880e-05 DIIS
   @DF-RKS iter   6:  -230.25880240008203   -7.71987e-06   1.04657e-05 DIIS
   @DF-RKS iter   7:  -230.25880265024887   -2.50167e-07   4.49955e-06 DIIS
   @DF-RKS iter   8:  -230.25880270515458   -5.49057e-08   4.77042e-07 DIIS

  ==> Post-Iterations <==

    Orbital Energies (a.u.)
    -----------------------

    Doubly Occupied:                                                      

       1A    -19.135234     2A    -19.133259     3A    -10.227473  
       4A    -10.227268     5A     -1.021870     6A     -1.010638  
       7A     -0.731368     8A     -0.615696     9A     -0.520170  
      10A     -0.495737    11A     -0.453335    12A     -0.429954  
      13A     -0.397867    14A     -0.342613    15A     -0.325198  
      16A     -0.269797    17A     -0.266735  

    Virtual:                                                              

      18A      0.044811    19A      0.049832    20A      0.103567  
      21A      0.116599    22A      0.127761    23A      0.163992  
      24A      0.187863    25A      0.239102    26A      0.250531  
      27A      0.436589    28A      0.441466    29A      0.500845  
      30A      0.513192    31A      0.551128    32A      0.578557  
      33A      0.602536    34A      0.624042    35A      0.638285  
      36A      0.649416    37A      0.669105    38A      0.682845  
      39A      0.879677    40A      0.900300    41A      0.906967  
      42A      0.972313    43A      1.015429    44A      1.056017  
      45A      1.062268    46A      1.095229    47A      1.200708  
      48A      1.213890    49A      1.288308    50A      1.341708  
      51A      1.351949    52A      1.371363    53A      1.445696  
      54A      1.514464    55A      1.597524    56A      1.610308  
      57A      1.648177    58A      1.652374    59A      1.663139  
      60A      1.700257    61A      1.720004    62A      1.774673  
      63A      1.836537    64A      1.865250    65A      1.915645  
      66A      1.977207    67A      2.027701    68A      2.053437  
      69A      2.101872    70A      2.153101    71A      2.239903  
      72A      2.290663    73A      2.405722    74A      2.434704  
      75A      2.469855    76A      2.516935    77A      2.912075  
      78A      2.958253    79A      2.964404    80A      3.015014  
      81A      3.071895    82A      3.126808    83A      3.189032  
      84A      3.240811    85A      3.672243    86A      3.686406  

    Final Occupation by Irrep:
              A 
    DOCC [    17 ]

  Energy converged.

  @DF-RKS Final Energy:  -230.25880270515458

   => Energetics <=

    Nuclear Repulsion Energy =            129.8364279865556057
    One-Electron Energy =                -571.3493897576604468
    Two-Electron Energy =                 235.7968896029890118
    DFT Exchange-Correlation Energy =     -24.5380878870387313
    Empirical Dispersion Energy =          -0.0046426500000000
    PCM Polarization Energy =               0.0000000000000000
    EFP Energy =                            0.0000000000000000
    Total Energy =                       -230.2588027051545794



Properties will be evaluated at   0.000000,   0.000000,   0.000000 Bohr

Properties computed using the SCF density matrix

  Nuclear Dipole Moment: (a.u.)
     X:   184.5473      Y:   -22.3578      Z:    31.2458

  Electronic Dipole Moment: (a.u.)
     X:  -184.6236      Y:    22.4197      Z:   -32.0750

  Dipole Moment: (a.u.)
     X:    -0.0763      Y:     0.0619      Z:    -0.8292     Total:     0.8350

  Dipole Moment: (Debye)
     X:    -0.1939      Y:     0.1573      Z:    -2.1077     Total:     2.1224


*** tstop() called on computer06 at Tue Dec 12 10:56:32 2017
Module time:
	user time   =      19.83 seconds =       0.33 minutes
	system time =       0.12 seconds =       0.00 minutes
	total time  =         21 seconds =       0.35 minutes
Total time:
	user time   =      19.83 seconds =       0.33 minutes
	system time =       0.12 seconds =       0.00 minutes
	total time  =         21 seconds =       0.35 minutes


Properties will be evaluated at   0.000000,   0.000000,   0.000000 Bohr

Properties computed using the  density matrix

  Nuclear Dipole Moment: (a.u.)
     X:   184.5473      Y:   -22.3578      Z:    31.2458

  Electronic Dipole Moment: (a.u.)
     X:  -184.6236      Y:    22.4197      Z:   -32.0750

  Dipole Moment: (a.u.)
     X:    -0.0763      Y:     0.0619      Z:    -0.8292     Total:     0.8350

  Dipole Moment: (Debye)
     X:    -0.1939      Y:     0.1573      Z:    -2.1077     Total:     2.1224

  Quadrupole Moment: (Debye Ang)
    XX:   -28.3738     YY:   -22.7966     ZZ:   -24.8533
    XY:    -2.7171     XZ:    -6.9770     YZ:     0.1434

  Traceless Quadrupole Moment: (Debye Ang)
    XX:    -3.0326     YY:     2.5446     ZZ:     0.4879
    XY:    -2.7171     XZ:    -6.9770     YZ:     0.1434

  Mulliken Charges: (a.u.)
   Center  Symbol    Alpha    Beta     Spin     Total
       1     O     4.13992  4.13992  0.00000 -0.27983
       2     C     2.94378  2.94378  0.00000  0.11243
       3     C     2.92937  2.92937  0.00000  0.14127
       4     O     4.13925  4.13925  0.00000 -0.27849
       5     H     0.42818  0.42818  0.00000  0.14364
       6     H     0.49798  0.49798  0.00000  0.00403
       7     H     0.50816  0.50816  0.00000 -0.01632
       8     H     0.49702  0.49702  0.00000  0.00596
       9     H     0.48570  0.48570  0.00000  0.02859
      10     H     0.43064  0.43064  0.00000  0.13872

   Total alpha = 17.00000, Total beta = 17.00000, Total charge = -0.00000


*** Psi4 exiting successfully. Buy a developer a beer!
