    -----------------------------------------------------------------------
          Psi4: An Open-Source Ab Initio Electronic Structure Package
                              Psi4 (no tag) Driver

                          Git: Rev {detached?}  

    J. M. Turney, A. C. Simmonett, R. M. Parrish, E. G. Hohenstein,
    F. A. Evangelista, J. T. Fermann, B. J. Mintz, L. A. Burns, J. J. Wilke,
    M. L. Abrams, N. J. Russ, M. L. Leininger, C. L. Janssen, E. T. Seidl,
    W. D. Allen, H. F. Schaefer, R. A. King, E. F. Valeev, C. D. Sherrill,
    and T. D. Crawford, WIREs Comput. Mol. Sci. 2, 556-565 (2012)
    (doi: 10.1002/wcms.93)

                         Additional Contributions by
    A. E. DePrince, M. Saitow, U. Bozkaya, A. Yu. Sokolov
    -----------------------------------------------------------------------


    Psi4 started on: Tue Jul  5 16:21:22 2016

    Process ID:  25409
    PSI4DATADIR: /export131/home/mjharvey/miniconda3/share
    Memory level set to 256.000 MB

  ==> Input File <==

--------------------------------------------------------------------------
set {
	reference rhf
	basis 6-31G*
}


set_num_threads( 1 )
memory 2 gb

molecule MOL {
0 1

H	 -1.725254	 1.711381	 -0.614277
C	 -1.028093	 1.474388	 0.182682
N	 -0.528168	 0.128977	 -0.000000
H	 -1.565819	 1.539004	 1.121677
H	 -0.247907	 2.240267	 0.180600
C	 0.248044	 -0.037491	 -1.209632
H	 0.019888	 -0.138780	 0.793076
H	 0.998722	 0.743888	 -1.266824
H	 -0.398417	 0.061950	 -2.074060
H	 0.763621	 -0.999315	 -1.275517

	symmetry c1
}
ee = energy('scf')
oeprop('DIPOLE', 'QUADRUPOLE', 'MULLIKEN_CHARGES')
f=open( 'psi4out.xyz', 'w' )
f.write( "10  " )
f.write( str(ee) + "\n" )
f.write( MOL.save_string_xyz() )
f.close()
--------------------------------------------------------------------------

  Memory set to   2.000 GiB by Python script.

*** tstart() called on cx1-3-1-3.cx1.hpc.ic.ac.uk
*** at Tue Jul  5 16:21:23 2016


         ---------------------------------------------------------
                                   SCF
            by Justin Turney, Rob Parrish, and Andy Simmonett
                              RHF Reference
                        1 Threads,   2000 MiB Core
         ---------------------------------------------------------

  ==> Geometry <==

    Molecular point group: c1
    Full point group: C1

    Geometry (in Angstrom), charge = 0, multiplicity = 1:

       Center              X                  Y                   Z               Mass       
    ------------   -----------------  -----------------  -----------------  -----------------
           H         -1.305158630208     1.173237291479    -0.270646327797     1.007825032070
           C         -0.607997630208     0.936244291479     0.526312672203    12.000000000000
           N         -0.108072630208    -0.409166708521     0.343630672203    14.003074004780
           H         -1.145723630208     1.000860291479     1.465307672203     1.007825032070
           H          0.172188369792     1.702123291479     0.524230672203     1.007825032070
           C          0.668139369792    -0.575634708521    -0.866001327797    12.000000000000
           H          0.439983369792    -0.676923708521     1.136706672203     1.007825032070
           H          1.418817369792     0.205744291479    -0.923193327797     1.007825032070
           H          0.021678369792    -0.476193708521    -1.730429327797     1.007825032070
           H          1.183716369792    -1.537458708521    -0.931886327797     1.007825032070

  Running in c1 symmetry.

  Rotational constants: A =      1.18790  B =      0.31282  C =      0.27690 [cm^-1]
  Rotational constants: A =  35612.23193  B =   9378.20596  C =   8301.27171 [MHz]
  Nuclear repulsion =   84.697435514836585

  Charge       = 0
  Multiplicity = 1
  Electrons    = 26
  Nalpha       = 13
  Nbeta        = 13

  ==> Algorithm <==

  SCF Algorithm Type is DF.
  DIIS enabled.
  MOM disabled.
  Fractional occupation disabled.
  Guess Type is CORE.
  Energy threshold   = 1.00e-06
  Density threshold  = 1.00e-06
  Integral threshold = 0.00e+00

  ==> Primary Basis <==

  Basis Set: 6-31G*
    Number of shells: 32
    Number of basis function: 59
    Number of Cartesian functions: 59
    Spherical Harmonics?: false
    Max angular momentum: 2

  ==> Pre-Iterations <==

   -------------------------------------------------------
    Irrep   Nso     Nmo     Nalpha   Nbeta   Ndocc  Nsocc
   -------------------------------------------------------
     A         59      59       0       0       0       0
   -------------------------------------------------------
    Total      59      59      13      13      13       0
   -------------------------------------------------------

 OEINTS: Overlap, kinetic, potential, dipole, and quadrupole integrals
         stored in file 35.

  ==> Integral Setup <==

  ==> DFJK: Density-Fitted J/K Matrices <==

    J tasked:                  Yes
    K tasked:                  Yes
    wK tasked:                  No
    OpenMP threads:              1
    Integrals threads:           1
    Memory (MB):              1430
    Algorithm:                Core
    Integral Cache:           NONE
    Schwarz Cutoff:          1E-12
    Fitting Condition:       1E-12

   => Auxiliary Basis Set <=

  Basis Set: 
    Number of shells: 135
    Number of basis function: 418
    Number of Cartesian functions: 418
    Spherical Harmonics?: false
    Max angular momentum: 3

  Minimum eigenvalue in the overlap matrix is 7.3967765818E-03.
  Using Symmetric Orthogonalization.
  SCF Guess: Core (One-Electron) Hamiltonian.

  ==> Iterations <==

                           Total Energy        Delta E     RMS |[F,P]|

   @DF-RHF iter   1:  -109.54027290875455   -1.09540e+02   9.12164e-02 
   @DF-RHF iter   2:  -114.55734622567995   -5.01707e+00   5.96440e-02 DIIS
   @DF-RHF iter   3:  -131.73519439473012   -1.71778e+01   3.93775e-02 DIIS
   @DF-RHF iter   4:  -133.69310387083601   -1.95791e+00   1.75447e-02 DIIS
   @DF-RHF iter   5:  -134.16856505152123   -4.75461e-01   6.42746e-03 DIIS
   @DF-RHF iter   6:  -134.23598622959014   -6.74212e-02   7.92262e-04 DIIS
   @DF-RHF iter   7:  -134.23719974928827   -1.21352e-03   1.56143e-04 DIIS
   @DF-RHF iter   8:  -134.23727877156472   -7.90223e-05   3.94628e-05 DIIS
   @DF-RHF iter   9:  -134.23728361747129   -4.84591e-06   8.86731e-06 DIIS
   @DF-RHF iter  10:  -134.23728391600793   -2.98537e-07   2.81183e-06 DIIS
   @DF-RHF iter  11:  -134.23728393947397   -2.34660e-08   6.72513e-07 DIIS

  ==> Post-Iterations <==

    Orbital Energies (a.u.)
    -----------------------

    Doubly Occupied:                                                      

       1A    -15.537134     2A    -11.236703     3A    -11.236376  
       4A     -1.199534     5A     -0.947318     6A     -0.854744  
       7A     -0.661936     8A     -0.614838     9A     -0.588200  
      10A     -0.540168    11A     -0.510720    12A     -0.509018  
      13A     -0.359594  

    Virtual:                                                              

      14A      0.229800    15A      0.282326    16A      0.301592  
      17A      0.307734    18A      0.321816    19A      0.350514  
      20A      0.351683    21A      0.387552    22A      0.452759  
      23A      0.724903    24A      0.762718    25A      0.783968  
      26A      0.797024    27A      0.823916    28A      0.979876  
      29A      0.997866    30A      1.088844    31A      1.113270  
      32A      1.136011    33A      1.178356    34A      1.204451  
      35A      1.214387    36A      1.232780    37A      1.255802  
      38A      1.256277    39A      1.263505    40A      1.615586  
      41A      1.656640    42A      1.738874    43A      1.810847  
      44A      2.109012    45A      2.203909    46A      2.354093  
      47A      2.367449    48A      2.405002    49A      2.439547  
      50A      2.570468    51A      2.583328    52A      2.703956  
      53A      2.799166    54A      2.847707    55A      3.018437  
      56A      3.117118    57A      4.315384    58A      4.664654  
      59A      4.726345  

    Final Occupation by Irrep:
              A 
    DOCC [    13 ]

  Energy converged.

  @DF-RHF Final Energy:  -134.23728393947397

   => Energetics <=

    Nuclear Repulsion Energy =             84.6974355148365845
    One-Electron Energy =                -348.2769824424025273
    Two-Electron Energy =                 129.3422629880920738
    DFT Exchange-Correlation Energy =       0.0000000000000000
    Empirical Dispersion Energy =           0.0000000000000000
    PCM Polarization Energy =               0.0000000000000000
    EFP Energy =                            0.0000000000000000
    Total Energy =                       -134.2372839394738833

    Alert: EFP and PCM quantities not currently incorporated into SCF psivars.

Properties will be evaluated at   0.000000,   0.000000,   0.000000 Bohr
  ==> Properties <==


Properties computed using the SCF density matrix

  Nuclear Dipole Moment: (a.u.)
     X:     0.7367      Y:     1.3056      Z:    -0.6853

  Electronic Dipole Moment: (a.u.)
     X:    -0.3538      Y:    -1.0686      Z:     0.7697

  Dipole Moment: (a.u.)
     X:     0.3829      Y:     0.2370      Z:     0.0844     Total:     0.4582

  Dipole Moment: (Debye)
     X:     0.9733      Y:     0.6024      Z:     0.2145     Total:     1.1646


  Saving occupied orbitals to File 180.

*** tstop() called on cx1-3-1-3.cx1.hpc.ic.ac.uk at Tue Jul  5 16:21:25 2016
Module time:
	user time   =       1.60 seconds =       0.03 minutes
	system time =       0.01 seconds =       0.00 minutes
	total time  =          2 seconds =       0.03 minutes
Total time:
	user time   =       1.60 seconds =       0.03 minutes
	system time =       0.01 seconds =       0.00 minutes
	total time  =          2 seconds =       0.03 minutes


Properties will be evaluated at   0.000000,   0.000000,   0.000000 Bohr

Properties computed using the  density matrix

  Nuclear Dipole Moment: (a.u.)
     X:     0.7367      Y:     1.3056      Z:    -0.6853

  Electronic Dipole Moment: (a.u.)
     X:    -0.3538      Y:    -1.0686      Z:     0.7697

  Dipole Moment: (a.u.)
     X:     0.3829      Y:     0.2370      Z:     0.0844     Total:     0.4582

  Dipole Moment: (Debye)
     X:     0.9733      Y:     0.6024      Z:     0.2145     Total:     1.1646

  Quadrupole Moment: (Debye Ang)
    XX:   -21.0460     YY:   -21.3373     ZZ:   -19.2120
    XY:    -1.9745     XZ:     0.6322     YZ:     0.2786

  Traceless Quadrupole Moment: (Debye Ang)
    XX:    -0.5142     YY:    -0.8055     ZZ:     1.3198
    XY:    -1.9745     XZ:     0.6322     YZ:     0.2786

  Mulliken Charges: (a.u.)
   Center  Symbol    Alpha    Beta     Spin     Total
       1     H     0.41784  0.41784  0.00000  0.16432
       2     C     3.14569  3.14569  0.00000 -0.29137
       3     N     3.83800  3.83800  0.00000 -0.67600
       4     H     0.41604  0.41604  0.00000  0.16792
       5     H     0.43482  0.43482  0.00000  0.13036
       6     C     3.14588  3.14588  0.00000 -0.29176
       7     H     0.33281  0.33281  0.00000  0.33438
       8     H     0.43454  0.43454  0.00000  0.13092
       9     H     0.41749  0.41749  0.00000  0.16503
      10     H     0.41690  0.41690  0.00000  0.16620

   Total alpha = 13.00000, Total beta = 13.00000, Total charge =  0.00000


*** PSI4 exiting successfully. Buy a developer a beer!
