    -----------------------------------------------------------------------
          Psi4: An Open-Source Ab Initio Electronic Structure Package
                              Psi4 (no tag) Driver

                          Git: Rev {detached?}  

    J. M. Turney, A. C. Simmonett, R. M. Parrish, E. G. Hohenstein,
    F. A. Evangelista, J. T. Fermann, B. J. Mintz, L. A. Burns, J. J. Wilke,
    M. L. Abrams, N. J. Russ, M. L. Leininger, C. L. Janssen, E. T. Seidl,
    W. D. Allen, H. F. Schaefer, R. A. King, E. F. Valeev, C. D. Sherrill,
    and T. D. Crawford, WIREs Comput. Mol. Sci. 2, 556-565 (2012)
    (doi: 10.1002/wcms.93)

                         Additional Contributions by
    A. E. DePrince, M. Saitow, U. Bozkaya, A. Yu. Sokolov
    -----------------------------------------------------------------------


    Psi4 started on: Tue Jul  5 16:46:03 2016

    Process ID:  13725
    PSI4DATADIR: /export131/home/mjharvey/miniconda3/share
    Memory level set to 256.000 MB

  ==> Input File <==

--------------------------------------------------------------------------
set {
	reference rhf
	basis 6-31G*
}


set_num_threads( 1 )
memory 2 gb

molecule MOL {
0 1

H	 -2.153054	 -2.250733	 0.000000
O	 -2.462445	 -1.355403	 0.000000
C	 -1.434260	 -0.483044	 0.000000
C	 -1.640271	 0.745920	 0.617993
C	 -0.213670	 -0.768815	 -0.581727
H	 -2.596732	 0.945714	 1.063211
C	 -0.625120	 1.679700	 0.649902
H	 -0.041261	 -1.715109	 -1.062725
C	 0.800992	 0.184203	 -0.541166
H	 -0.792253	 2.626726	 1.129252
C	 0.607403	 1.410881	 0.071181
C	 2.075099	 -0.122366	 -1.152038
H	 1.398867	 2.135190	 0.094423
N	 3.075417	 -0.365610	 -1.632766

	symmetry c1
}
set optking {
	frozen_dihedral = ("
		14 12 9 5
	")
}

ee = energy('scf')
oeprop('DIPOLE', 'QUADRUPOLE', 'MULLIKEN_CHARGES')
f=open( 'psi4out.xyz', 'w' )
f.write( "14  " )
f.write( str(ee) + "\n" )
f.write( MOL.save_string_xyz() )
f.close()
--------------------------------------------------------------------------

  Memory set to   2.000 GiB by Python script.

*** tstart() called on cx1-3-4-4.cx1.hpc.ic.ac.uk
*** at Tue Jul  5 16:46:04 2016


         ---------------------------------------------------------
                                   SCF
            by Justin Turney, Rob Parrish, and Andy Simmonett
                              RHF Reference
                        1 Threads,   2000 MiB Core
         ---------------------------------------------------------

  ==> Geometry <==

    Molecular point group: c1
    Full point group: C1

    Geometry (in Angstrom), charge = 0, multiplicity = 1:

       Center              X                  Y                   Z               Mass       
    ------------   -----------------  -----------------  -----------------  -----------------
           H         -2.105199966706    -2.307135126921     0.276050569328     1.007825032070
           O         -2.414590966706    -1.411805126921     0.276050569328    15.994914619560
           C         -1.386405966706    -0.539446126921     0.276050569328    12.000000000000
           C         -1.592416966706     0.689517873079     0.894043569328    12.000000000000
           C         -0.165815966706    -0.825217126921    -0.305676430672    12.000000000000
           H         -2.548877966706     0.889311873079     1.339261569328     1.007825032070
           C         -0.577265966706     1.623297873079     0.925952569328    12.000000000000
           H          0.006593033294    -1.771511126921    -0.786674430672     1.007825032070
           C          0.848846033294     0.127800873079    -0.265115430672    12.000000000000
           H         -0.744398966706     2.570323873079     1.405302569328     1.007825032070
           C          0.655257033294     1.354478873079     0.347231569328    12.000000000000
           C          2.122953033294    -0.178768126921    -0.875987430672    12.000000000000
           H          1.446721033294     2.078787873079     0.370473569328     1.007825032070
           N          3.123271033294    -0.422012126921    -1.356715430672    14.003074004780

  Running in c1 symmetry.

  Rotational constants: A =      0.11551  B =      0.04064  C =      0.03008 [cm^-1]
  Rotational constants: A =   3462.96035  B =   1218.27895  C =    901.82348 [MHz]
  Nuclear repulsion =  379.370906576425114

  Charge       = 0
  Multiplicity = 1
  Electrons    = 62
  Nalpha       = 31
  Nbeta        = 31

  ==> Algorithm <==

  SCF Algorithm Type is DF.
  DIIS enabled.
  MOM disabled.
  Fractional occupation disabled.
  Guess Type is CORE.
  Energy threshold   = 1.00e-06
  Density threshold  = 1.00e-06
  Integral threshold = 0.00e+00

  ==> Primary Basis <==

  Basis Set: 6-31G*
    Number of shells: 64
    Number of basis function: 145
    Number of Cartesian functions: 145
    Spherical Harmonics?: false
    Max angular momentum: 2

  ==> Pre-Iterations <==

   -------------------------------------------------------
    Irrep   Nso     Nmo     Nalpha   Nbeta   Ndocc  Nsocc
   -------------------------------------------------------
     A        145     145       0       0       0       0
   -------------------------------------------------------
    Total     145     145      31      31      31       0
   -------------------------------------------------------

 OEINTS: Overlap, kinetic, potential, dipole, and quadrupole integrals
         stored in file 35.

  ==> Integral Setup <==

  ==> DFJK: Density-Fitted J/K Matrices <==

    J tasked:                  Yes
    K tasked:                  Yes
    wK tasked:                  No
    OpenMP threads:              1
    Integrals threads:           1
    Memory (MB):              1430
    Algorithm:                Core
    Integral Cache:           NONE
    Schwarz Cutoff:          1E-12
    Fitting Condition:       1E-12

   => Auxiliary Basis Set <=

  Basis Set: 
    Number of shells: 261
    Number of basis function: 854
    Number of Cartesian functions: 854
    Spherical Harmonics?: false
    Max angular momentum: 3

  Minimum eigenvalue in the overlap matrix is 4.1850005903E-04.
  Using Symmetric Orthogonalization.
  SCF Guess: Core (One-Electron) Hamiltonian.

  ==> Iterations <==

                           Total Energy        Delta E     RMS |[F,P]|

   @DF-RHF iter   1:  -310.09475080997663   -3.10095e+02   6.48098e-02 
   @DF-RHF iter   2:  -148.68720948520013    1.61408e+02   7.75459e-02 DIIS
   @DF-RHF iter   3:  -317.81226457121340   -1.69125e+02   5.02907e-02 DIIS
   @DF-RHF iter   4:  -321.74798424016922   -3.93572e+00   5.62822e-02 DIIS
   @DF-RHF iter   5:  -392.82419087542462   -7.10762e+01   1.64060e-02 DIIS
   @DF-RHF iter   6:  -389.41682075794404    3.40737e+00   1.99377e-02 DIIS
   @DF-RHF iter   7:  -397.05154986813432   -7.63473e+00   4.97959e-03 DIIS
   @DF-RHF iter   8:  -397.22580113029892   -1.74251e-01   1.97653e-03 DIIS
   @DF-RHF iter   9:  -397.27210365338578   -4.63025e-02   1.09464e-03 DIIS
   @DF-RHF iter  10:  -397.28796544020156   -1.58618e-02   3.58385e-04 DIIS
   @DF-RHF iter  11:  -397.29036441179142   -2.39897e-03   1.19539e-04 DIIS
   @DF-RHF iter  12:  -397.29061795959979   -2.53548e-04   4.65004e-05 DIIS
   @DF-RHF iter  13:  -397.29066791730270   -4.99577e-05   2.29517e-05 DIIS
   @DF-RHF iter  14:  -397.29068470874108   -1.67914e-05   1.25851e-05 DIIS
   @DF-RHF iter  15:  -397.29069213473747   -7.42600e-06   6.53604e-06 DIIS
   @DF-RHF iter  16:  -397.29069426310048   -2.12836e-06   2.21379e-06 DIIS
   @DF-RHF iter  17:  -397.29069451626117   -2.53161e-07   7.75768e-07 DIIS

  ==> Post-Iterations <==

    Orbital Energies (a.u.)
    -----------------------

    Doubly Occupied:                                                      

       1A    -20.609779     2A    -15.575767     3A    -11.324038  
       4A    -11.294607     5A    -11.277077     6A    -11.263861  
       7A    -11.262108     8A    -11.260321     9A    -11.254228  
      10A     -1.431212    11A     -1.233595    12A     -1.182087  
      13A     -1.062887    14A     -1.038827    15A     -0.894558  
      16A     -0.867056    17A     -0.778601    18A     -0.723909  
      19A     -0.700107    20A     -0.666527    21A     -0.628024  
      22A     -0.621586    23A     -0.579563    24A     -0.561402  
      25A     -0.550833    26A     -0.540492    27A     -0.520544  
      28A     -0.473877    29A     -0.472913    30A     -0.363069  
      31A     -0.339528  

    Virtual:                                                              

      32A      0.086715    33A      0.129564    34A      0.208786  
      35A      0.218077    36A      0.223753    37A      0.274086  
      38A      0.279697    39A      0.295091    40A      0.322861  
      41A      0.368417    42A      0.378406    43A      0.444530  
      44A      0.453065    45A      0.469476    46A      0.480252  
      47A      0.562749    48A      0.597582    49A      0.646575  
      50A      0.701640    51A      0.713420    52A      0.717497  
      53A      0.759237    54A      0.782917    55A      0.793603  
      56A      0.803276    57A      0.807906    58A      0.820386  
      59A      0.854356    60A      0.860273    61A      0.870356  
      62A      0.887553    63A      0.891657    64A      0.937884  
      65A      0.950571    66A      0.995765    67A      1.012318  
      68A      1.063126    69A      1.085474    70A      1.097419  
      71A      1.102417    72A      1.111629    73A      1.136137  
      74A      1.138183    75A      1.169100    76A      1.182655  
      77A      1.214795    78A      1.253779    79A      1.267529  
      80A      1.310586    81A      1.373710    82A      1.394811  
      83A      1.420637    84A      1.450181    85A      1.465964  
      86A      1.483018    87A      1.544432    88A      1.591605  
      89A      1.602464    90A      1.654843    91A      1.688307  
      92A      1.705038    93A      1.730803    94A      1.740768  
      95A      1.798696    96A      1.807563    97A      1.842056  
      98A      1.954689    99A      2.042013   100A      2.057591  
     101A      2.085868   102A      2.108217   103A      2.128517  
     104A      2.158945   105A      2.231539   106A      2.245101  
     107A      2.261365   108A      2.283293   109A      2.290257  
     110A      2.295568   111A      2.329080   112A      2.390724  
     113A      2.433711   114A      2.441383   115A      2.469308  
     116A      2.531978   117A      2.552738   118A      2.608443  
     119A      2.622877   120A      2.757288   121A      2.832557  
     122A      2.849527   123A      2.855781   124A      2.920782  
     125A      2.999275   126A      3.014171   127A      3.026212  
     128A      3.104227   129A      3.139417   130A      3.167986  
     131A      3.208297   132A      3.285954   133A      3.375931  
     134A      3.562687   135A      3.675754   136A      3.869290  
     137A      4.335750   138A      4.464653   139A      4.509260  
     140A      4.557351   141A      4.616285   142A      4.719351  
     143A      4.828498   144A      4.971938   145A      5.257217  

    Final Occupation by Irrep:
              A 
    DOCC [    31 ]

  Energy converged.

  @DF-RHF Final Energy:  -397.29069451626117

   => Energetics <=

    Nuclear Repulsion Energy =            379.3709065764251136
    One-Electron Energy =               -1290.6172474223344580
    Two-Electron Energy =                 513.9556463296484026
    DFT Exchange-Correlation Energy =       0.0000000000000000
    Empirical Dispersion Energy =           0.0000000000000000
    PCM Polarization Energy =               0.0000000000000000
    EFP Energy =                            0.0000000000000000
    Total Energy =                       -397.2906945162609418

    Alert: EFP and PCM quantities not currently incorporated into SCF psivars.

Properties will be evaluated at   0.000000,   0.000000,   0.000000 Bohr
  ==> Properties <==


Properties computed using the SCF density matrix

  Nuclear Dipole Moment: (a.u.)
     X:    -3.7191      Y:     1.3629      Z:     2.4468

  Electronic Dipole Moment: (a.u.)
     X:     2.5150      Y:    -1.3378      Z:    -1.6165

  Dipole Moment: (a.u.)
     X:    -1.2042      Y:     0.0252      Z:     0.8303     Total:     1.4629

  Dipole Moment: (Debye)
     X:    -3.0607      Y:     0.0640      Z:     2.1105     Total:     3.7183


  Saving occupied orbitals to File 180.

*** tstop() called on cx1-3-4-4.cx1.hpc.ic.ac.uk at Tue Jul  5 16:46:20 2016
Module time:
	user time   =      15.47 seconds =       0.26 minutes
	system time =       0.09 seconds =       0.00 minutes
	total time  =         16 seconds =       0.27 minutes
Total time:
	user time   =      15.47 seconds =       0.26 minutes
	system time =       0.09 seconds =       0.00 minutes
	total time  =         16 seconds =       0.27 minutes


Properties will be evaluated at   0.000000,   0.000000,   0.000000 Bohr

Properties computed using the  density matrix

  Nuclear Dipole Moment: (a.u.)
     X:    -3.7191      Y:     1.3629      Z:     2.4468

  Electronic Dipole Moment: (a.u.)
     X:     2.5150      Y:    -1.3378      Z:    -1.6165

  Dipole Moment: (a.u.)
     X:    -1.2042      Y:     0.0252      Z:     0.8303     Total:     1.4629

  Dipole Moment: (Debye)
     X:    -3.0607      Y:     0.0640      Z:     2.1105     Total:     3.7183

  Quadrupole Moment: (Debye Ang)
    XX:   -67.3670     YY:   -40.6998     ZZ:   -54.7305
    XY:     3.7856     XZ:     4.5984     YZ:     1.8485

  Traceless Quadrupole Moment: (Debye Ang)
    XX:   -13.1013     YY:    13.5659     ZZ:    -0.4647
    XY:     3.7856     XZ:     4.5984     YZ:     1.8485

  Mulliken Charges: (a.u.)
   Center  Symbol    Alpha    Beta     Spin     Total
       1     H     0.26849  0.26849  0.00000  0.46301
       2     O     4.37778  4.37778  0.00000 -0.75556
       3     C     2.79744  2.79744  0.00000  0.40512
       4     C     3.11238  3.11238  0.00000 -0.22475
       5     C     3.12904  3.12904  0.00000 -0.25809
       6     H     0.38311  0.38311  0.00000  0.23379
       7     C     3.09712  3.09712  0.00000 -0.19423
       8     H     0.38338  0.38338  0.00000  0.23325
       9     C     2.99253  2.99253  0.00000  0.01495
      10     H     0.38879  0.38879  0.00000  0.22242
      11     C     3.09726  3.09726  0.00000 -0.19451
      12     C     2.86652  2.86652  0.00000  0.26696
      13     H     0.38096  0.38096  0.00000  0.23807
      14     N     3.72521  3.72521  0.00000 -0.45042

   Total alpha = 31.00000, Total beta = 31.00000, Total charge = -0.00000


*** PSI4 exiting successfully. Buy a developer a beer!
