    -----------------------------------------------------------------------
          Psi4: An Open-Source Ab Initio Electronic Structure Package
                              Psi4 (no tag) Driver

                          Git: Rev {detached?}  

    J. M. Turney, A. C. Simmonett, R. M. Parrish, E. G. Hohenstein,
    F. A. Evangelista, J. T. Fermann, B. J. Mintz, L. A. Burns, J. J. Wilke,
    M. L. Abrams, N. J. Russ, M. L. Leininger, C. L. Janssen, E. T. Seidl,
    W. D. Allen, H. F. Schaefer, R. A. King, E. F. Valeev, C. D. Sherrill,
    and T. D. Crawford, WIREs Comput. Mol. Sci. 2, 556-565 (2012)
    (doi: 10.1002/wcms.93)

                         Additional Contributions by
    A. E. DePrince, M. Saitow, U. Bozkaya, A. Yu. Sokolov
    -----------------------------------------------------------------------


    Psi4 started on: Tue Jul  5 16:29:00 2016

    Process ID:   4988
    PSI4DATADIR: /export131/home/mjharvey/miniconda3/share
    Memory level set to 256.000 MB

  ==> Input File <==

--------------------------------------------------------------------------
set {
	reference rhf
	basis 6-31G*
}


set_num_threads( 1 )
memory 2 gb

molecule MOL {
0 1

H	 -0.821032	 -1.655889	 0.000000
O	 -1.037828	 -0.728600	 0.000000
C	 0.100509	 -0.036935	 0.000000
C	 1.302161	 -0.938010	 -0.000000
O	 0.123019	 1.149958	 0.000000
H	 1.278482	 -1.577119	 0.875040
H	 2.201692	 -0.341358	 -0.000000
H	 1.278482	 -1.577119	 -0.875040

	symmetry c1
}
ee = energy('scf')
oeprop('DIPOLE', 'QUADRUPOLE', 'MULLIKEN_CHARGES')
f=open( 'psi4out.xyz', 'w' )
f.write( "8  " )
f.write( str(ee) + "\n" )
f.write( MOL.save_string_xyz() )
f.close()
--------------------------------------------------------------------------

  Memory set to   2.000 GiB by Python script.

*** tstart() called on cx1-1-4-4.cx1.hpc.ic.ac.uk
*** at Tue Jul  5 16:29:00 2016


         ---------------------------------------------------------
                                   SCF
            by Justin Turney, Rob Parrish, and Andy Simmonett
                              RHF Reference
                        1 Threads,   2000 MiB Core
         ---------------------------------------------------------

  ==> Geometry <==

    Molecular point group: c1
    Full point group: Cs

    Geometry (in Angstrom), charge = 0, multiplicity = 1:

       Center              X                  Y                   Z               Mass       
    ------------   -----------------  -----------------  -----------------  -----------------
           H         -0.923798879779    -1.486756056184     0.000000000000     1.007825032070
           O         -1.140594879779    -0.559467056184     0.000000000000    15.994914619560
           C         -0.002257879779     0.132197943816     0.000000000000    12.000000000000
           C          1.199394120221    -0.768877056184     0.000000000000    12.000000000000
           O          0.020252120221     1.319090943816     0.000000000000    15.994914619560
           H          1.175715120221    -1.407986056184     0.875040000000     1.007825032070
           H          2.098925120221    -0.172225056184     0.000000000000     1.007825032070
           H          1.175715120221    -1.407986056184    -0.875040000000     1.007825032070

  Running in c1 symmetry.

  Rotational constants: A =      0.37405  B =      0.33330  C =      0.18213 [cm^-1]
  Rotational constants: A =  11213.71676  B =   9992.09414  C =   5460.07001 [MHz]
  Nuclear repulsion =  122.621899380596176

  Charge       = 0
  Multiplicity = 1
  Electrons    = 32
  Nalpha       = 16
  Nbeta        = 16

  ==> Algorithm <==

  SCF Algorithm Type is DF.
  DIIS enabled.
  MOM disabled.
  Fractional occupation disabled.
  Guess Type is CORE.
  Energy threshold   = 1.00e-06
  Density threshold  = 1.00e-06
  Integral threshold = 0.00e+00

  ==> Primary Basis <==

  Basis Set: 6-31G*
    Number of shells: 32
    Number of basis function: 68
    Number of Cartesian functions: 68
    Spherical Harmonics?: false
    Max angular momentum: 2

  ==> Pre-Iterations <==

   -------------------------------------------------------
    Irrep   Nso     Nmo     Nalpha   Nbeta   Ndocc  Nsocc
   -------------------------------------------------------
     A         68      68       0       0       0       0
   -------------------------------------------------------
    Total      68      68      16      16      16       0
   -------------------------------------------------------

 OEINTS: Overlap, kinetic, potential, dipole, and quadrupole integrals
         stored in file 35.

  ==> Integral Setup <==

  ==> DFJK: Density-Fitted J/K Matrices <==

    J tasked:                  Yes
    K tasked:                  Yes
    wK tasked:                  No
    OpenMP threads:              1
    Integrals threads:           1
    Memory (MB):              1430
    Algorithm:                Core
    Integral Cache:           NONE
    Schwarz Cutoff:          1E-12
    Fitting Condition:       1E-12

   => Auxiliary Basis Set <=

  Basis Set: 
    Number of shells: 132
    Number of basis function: 424
    Number of Cartesian functions: 424
    Spherical Harmonics?: false
    Max angular momentum: 3

  Minimum eigenvalue in the overlap matrix is 4.1603997317E-03.
  Using Symmetric Orthogonalization.
  SCF Guess: Core (One-Electron) Hamiltonian.

  ==> Iterations <==

                           Total Energy        Delta E     RMS |[F,P]|

   @DF-RHF iter   1:  -189.59205939703855   -1.89592e+02   9.58122e-02 
   @DF-RHF iter   2:  -148.18957139676718    4.14025e+01   8.59766e-02 DIIS
   @DF-RHF iter   3:  -210.58342890403156   -6.23939e+01   5.94944e-02 DIIS
   @DF-RHF iter   4:  -226.37662041700446   -1.57932e+01   2.05448e-02 DIIS
   @DF-RHF iter   5:  -227.59327344055930   -1.21665e+00   9.36925e-03 DIIS
   @DF-RHF iter   6:  -227.76522057540132   -1.71947e-01   3.25690e-03 DIIS
   @DF-RHF iter   7:  -227.79447974990052   -2.92592e-02   9.03423e-04 DIIS
   @DF-RHF iter   8:  -227.79668301561372   -2.20327e-03   3.65440e-04 DIIS
   @DF-RHF iter   9:  -227.79708323396090   -4.00218e-04   1.25171e-04 DIIS
   @DF-RHF iter  10:  -227.79713615232350   -5.29184e-05   4.82660e-05 DIIS
   @DF-RHF iter  11:  -227.79714689434263   -1.07420e-05   1.26428e-05 DIIS
   @DF-RHF iter  12:  -227.79714769489868   -8.00556e-07   2.65826e-06 DIIS
   @DF-RHF iter  13:  -227.79714772311382   -2.82151e-08   6.30716e-07 DIIS

  ==> Post-Iterations <==

    Orbital Energies (a.u.)
    -----------------------

    Doubly Occupied:                                                      

       1A    -20.619223     2A    -20.550795     3A    -11.386497  
       4A    -11.253233     5A     -1.474392     6A     -1.373396  
       7A     -1.032782     8A     -0.837517     9A     -0.723594  
      10A     -0.672914    11A     -0.659819    12A     -0.607549  
      13A     -0.572538    14A     -0.557330    15A     -0.477378  
      16A     -0.446626  

    Virtual:                                                              

      17A      0.188688    18A      0.191679    19A      0.266261  
      20A      0.301634    21A      0.313729    22A      0.386520  
      23A      0.484072    24A      0.523975    25A      0.722188  
      26A      0.777515    27A      0.803620    28A      0.812031  
      29A      0.822322    30A      0.947131    31A      0.984584  
      32A      1.043338    33A      1.109806    34A      1.113368  
      35A      1.172560    36A      1.195676    37A      1.211189  
      38A      1.269369    39A      1.334768    40A      1.355988  
      41A      1.365067    42A      1.605249    43A      1.626643  
      44A      1.681460    45A      1.751616    46A      1.851690  
      47A      2.000221    48A      2.009750    49A      2.098738  
      50A      2.123244    51A      2.143103    52A      2.192569  
      53A      2.299340    54A      2.366614    55A      2.524807  
      56A      2.555138    57A      2.692816    58A      2.790411  
      59A      2.845044    60A      3.011979    61A      3.080592  
      62A      3.213849    63A      3.370650    64A      3.468569  
      65A      4.253096    66A      4.470695    67A      4.595007  
      68A      4.841229  

    Final Occupation by Irrep:
              A 
    DOCC [    16 ]

  Energy converged.

  @DF-RHF Final Energy:  -227.79714772311382

   => Energetics <=

    Nuclear Repulsion Energy =            122.6218993805961759
    One-Electron Energy =                -554.3468899363781475
    Two-Electron Energy =                 203.9278428326681478
    DFT Exchange-Correlation Energy =       0.0000000000000000
    Empirical Dispersion Energy =           0.0000000000000000
    PCM Polarization Energy =               0.0000000000000000
    EFP Energy =                            0.0000000000000000
    Total Energy =                       -227.7971477231138238

    Alert: EFP and PCM quantities not currently incorporated into SCF psivars.

Properties will be evaluated at   0.000000,   0.000000,   0.000000 Bohr
  ==> Properties <==


Properties computed using the SCF density matrix

  Nuclear Dipole Moment: (a.u.)
     X:     3.3007      Y:    -4.1915      Z:     0.0000

  Electronic Dipole Moment: (a.u.)
     X:    -2.6563      Y:     2.4408      Z:     0.0000

  Dipole Moment: (a.u.)
     X:     0.6444      Y:    -1.7506      Z:     0.0000     Total:     1.8655

  Dipole Moment: (Debye)
     X:     1.6378      Y:    -4.4497      Z:     0.0000     Total:     4.7415


  Saving occupied orbitals to File 180.

*** tstop() called on cx1-1-4-4.cx1.hpc.ic.ac.uk at Tue Jul  5 16:29:03 2016
Module time:
	user time   =       1.79 seconds =       0.03 minutes
	system time =       0.02 seconds =       0.00 minutes
	total time  =          3 seconds =       0.05 minutes
Total time:
	user time   =       1.79 seconds =       0.03 minutes
	system time =       0.02 seconds =       0.00 minutes
	total time  =          3 seconds =       0.05 minutes


Properties will be evaluated at   0.000000,   0.000000,   0.000000 Bohr

Properties computed using the  density matrix

  Nuclear Dipole Moment: (a.u.)
     X:     3.3007      Y:    -4.1915      Z:     0.0000

  Electronic Dipole Moment: (a.u.)
     X:    -2.6563      Y:     2.4408      Z:     0.0000

  Dipole Moment: (a.u.)
     X:     0.6444      Y:    -1.7506      Z:     0.0000     Total:     1.8655

  Dipole Moment: (Debye)
     X:     1.6378      Y:    -4.4497      Z:     0.0000     Total:     4.7415

  Quadrupole Moment: (Debye Ang)
    XX:   -24.5967     YY:   -23.5960     ZZ:   -22.8237
    XY:     0.5862     XZ:     0.0000     YZ:    -0.0000

  Traceless Quadrupole Moment: (Debye Ang)
    XX:    -0.9246     YY:     0.0761     ZZ:     0.8484
    XY:     0.5862     XZ:     0.0000     YZ:    -0.0000

  Mulliken Charges: (a.u.)
   Center  Symbol    Alpha    Beta     Spin     Total
       1     H     0.26732  0.26732  0.00000  0.46536
       2     O     4.34145  4.34145  0.00000 -0.68291
       3     C     2.61845  2.61845  0.00000  0.76311
       4     C     3.31881  3.31881  0.00000 -0.63761
       5     O     4.26480  4.26480  0.00000 -0.52960
       6     H     0.40161  0.40161  0.00000  0.19678
       7     H     0.38596  0.38596  0.00000  0.22809
       8     H     0.40161  0.40161  0.00000  0.19678

   Total alpha = 16.00000, Total beta = 16.00000, Total charge =  0.00000


*** PSI4 exiting successfully. Buy a developer a beer!
