    -----------------------------------------------------------------------
          Psi4: An Open-Source Ab Initio Electronic Structure Package
                              Psi4 (no tag) Driver

                          Git: Rev {detached?}  

    J. M. Turney, A. C. Simmonett, R. M. Parrish, E. G. Hohenstein,
    F. A. Evangelista, J. T. Fermann, B. J. Mintz, L. A. Burns, J. J. Wilke,
    M. L. Abrams, N. J. Russ, M. L. Leininger, C. L. Janssen, E. T. Seidl,
    W. D. Allen, H. F. Schaefer, R. A. King, E. F. Valeev, C. D. Sherrill,
    and T. D. Crawford, WIREs Comput. Mol. Sci. 2, 556-565 (2012)
    (doi: 10.1002/wcms.93)

                         Additional Contributions by
    A. E. DePrince, M. Saitow, U. Bozkaya, A. Yu. Sokolov
    -----------------------------------------------------------------------


    Psi4 started on: Tue Jul  5 16:51:11 2016

    Process ID:   3752
    PSI4DATADIR: /export131/home/mjharvey/miniconda3/share
    Memory level set to 256.000 MB

  ==> Input File <==

--------------------------------------------------------------------------
set {
	reference rhf
	basis 6-31G*
}


set_num_threads( 1 )
memory 2 gb

molecule MOL {
0 1

O	 -0.488453	 0.057968	 1.132425
C	 -0.451170	 -1.129930	 1.097049
C	 0.801727	 -1.959116	 0.945507
O	 -1.528589	 -1.897310	 1.185968
C	 1.124911	 -2.785238	 2.184071
H	 1.613075	 -1.280220	 0.700432
H	 0.669725	 -2.590969	 0.072237
H	 1.272053	 -2.149836	 3.048928
H	 2.030738	 -3.360307	 2.024106
H	 0.320287	 -3.472711	 2.414906
C	 -1.500103	 -3.151797	 0.513025
C	 -1.511893	 -2.869271	 -0.974373
H	 -2.359605	 -3.734009	 0.816125
H	 -0.611326	 -3.691410	 0.810488
H	 -2.405526	 -2.323686	 -1.255288
H	 -1.490993	 -3.802485	 -1.527837
H	 -0.647674	 -2.280900	 -1.261079

	symmetry c1
}
set optking {
	frozen_dihedral = ("
		2 4 11 13,
		4 2 3 6
	")
}

ee = energy('scf')
oeprop('DIPOLE', 'QUADRUPOLE', 'MULLIKEN_CHARGES')
f=open( 'psi4out.xyz', 'w' )
f.write( "17  " )
f.write( str(ee) + "\n" )
f.write( MOL.save_string_xyz() )
f.close()
--------------------------------------------------------------------------

  Memory set to   2.000 GiB by Python script.

*** tstart() called on cx1-3-16-4.cx1.hpc.ic.ac.uk
*** at Tue Jul  5 16:51:11 2016


         ---------------------------------------------------------
                                   SCF
            by Justin Turney, Rob Parrish, and Andy Simmonett
                              RHF Reference
                        1 Threads,   2000 MiB Core
         ---------------------------------------------------------

  ==> Geometry <==

    Molecular point group: c1
    Full point group: C1

    Geometry (in Angstrom), charge = 0, multiplicity = 1:

       Center              X                  Y                   Z               Mass       
    ------------   -----------------  -----------------  -----------------  -----------------
           O          0.024171409132     2.027980066006     0.268740817119    15.994914619560
           C          0.061454409132     0.840082066006     0.233364817119    12.000000000000
           C          1.314351409132     0.010896066006     0.081822817119    12.000000000000
           O         -1.015964590868     0.072702066006     0.322283817119    15.994914619560
           C          1.637535409132    -0.815225933994     1.320386817119    12.000000000000
           H          2.125699409132     0.689792066006    -0.163252182881     1.007825032070
           H          1.182349409132    -0.620956933994    -0.791447182881     1.007825032070
           H          1.784677409132    -0.179823933994     2.185243817119     1.007825032070
           H          2.543362409132    -1.390294933994     1.160421817119     1.007825032070
           H          0.832911409132    -1.502698933994     1.551221817119     1.007825032070
           C         -0.987478590868    -1.181784933994    -0.350659182881    12.000000000000
           C         -0.999268590868    -0.899258933994    -1.838057182881    12.000000000000
           H         -1.846980590868    -1.763996933994    -0.047559182881     1.007825032070
           H         -0.098701590868    -1.721397933994    -0.053196182881     1.007825032070
           H         -1.892901590868    -0.353673933994    -2.118972182881     1.007825032070
           H         -0.978368590868    -1.832472933994    -2.391521182881     1.007825032070
           H         -0.135049590868    -0.310887933994    -2.124763182881     1.007825032070

  Running in c1 symmetry.

  Rotational constants: A =      0.11008  B =      0.07767  C =      0.05745 [cm^-1]
  Rotational constants: A =   3299.97121  B =   2328.62031  C =   1722.27655 [MHz]
  Nuclear repulsion =  329.753758680095700

  Charge       = 0
  Multiplicity = 1
  Electrons    = 56
  Nalpha       = 28
  Nbeta        = 28

  ==> Algorithm <==

  SCF Algorithm Type is DF.
  DIIS enabled.
  MOM disabled.
  Fractional occupation disabled.
  Guess Type is CORE.
  Energy threshold   = 1.00e-06
  Density threshold  = 1.00e-06
  Integral threshold = 0.00e+00

  ==> Primary Basis <==

  Basis Set: 6-31G*
    Number of shells: 62
    Number of basis function: 125
    Number of Cartesian functions: 125
    Spherical Harmonics?: false
    Max angular momentum: 2

  ==> Pre-Iterations <==

   -------------------------------------------------------
    Irrep   Nso     Nmo     Nalpha   Nbeta   Ndocc  Nsocc
   -------------------------------------------------------
     A        125     125       0       0       0       0
   -------------------------------------------------------
    Total     125     125      28      28      28       0
   -------------------------------------------------------

 OEINTS: Overlap, kinetic, potential, dipole, and quadrupole integrals
         stored in file 35.

  ==> Integral Setup <==

  ==> DFJK: Density-Fitted J/K Matrices <==

    J tasked:                  Yes
    K tasked:                  Yes
    wK tasked:                  No
    OpenMP threads:              1
    Integrals threads:           1
    Memory (MB):              1430
    Algorithm:                Core
    Integral Cache:           NONE
    Schwarz Cutoff:          1E-12
    Fitting Condition:       1E-12

   => Auxiliary Basis Set <=

  Basis Set: 
    Number of shells: 258
    Number of basis function: 817
    Number of Cartesian functions: 817
    Spherical Harmonics?: false
    Max angular momentum: 3

  Minimum eigenvalue in the overlap matrix is 3.3185145028E-03.
  Using Symmetric Orthogonalization.
  SCF Guess: Core (One-Electron) Hamiltonian.

  ==> Iterations <==

                           Total Energy        Delta E     RMS |[F,P]|

   @DF-RHF iter   1:  -255.32880920067515   -2.55329e+02   8.15431e-02 
   @DF-RHF iter   2:  -225.77503616879022    2.95538e+01   6.33606e-02 DIIS
   @DF-RHF iter   3:  -299.67018611554028   -7.38951e+01   5.20526e-02 DIIS
   @DF-RHF iter   4:  -343.12112390778469   -4.34509e+01   1.39846e-02 DIIS
   @DF-RHF iter   5:  -344.55799699553648   -1.43687e+00   6.60146e-03 DIIS
   @DF-RHF iter   6:  -344.85687435853885   -2.98877e-01   1.37547e-03 DIIS
   @DF-RHF iter   7:  -344.87114447223797   -1.42701e-02   6.18953e-04 DIIS
   @DF-RHF iter   8:  -344.87388331624908   -2.73884e-03   1.47859e-04 DIIS
   @DF-RHF iter   9:  -344.87413649688636   -2.53181e-04   4.35487e-05 DIIS
   @DF-RHF iter  10:  -344.87416832362436   -3.18267e-05   1.72298e-05 DIIS
   @DF-RHF iter  11:  -344.87417328491784   -4.96129e-06   7.86170e-06 DIIS
   @DF-RHF iter  12:  -344.87417467192535   -1.38701e-06   3.36709e-06 DIIS
   @DF-RHF iter  13:  -344.87417495229801   -2.80373e-07   9.79448e-07 DIIS

  ==> Post-Iterations <==

    Orbital Energies (a.u.)
    -----------------------

    Doubly Occupied:                                                      

       1A    -20.599085     2A    -20.544752     3A    -11.372857  
       4A    -11.299864     5A    -11.239849     6A    -11.234917  
       7A    -11.232395     8A     -1.465458     9A     -1.367317  
      10A     -1.071381    11A     -1.051506    12A     -0.918693  
      13A     -0.886159    14A     -0.771843    15A     -0.706486  
      16A     -0.691160    17A     -0.673095    18A     -0.630738  
      19A     -0.603523    20A     -0.574424    21A     -0.567336  
      22A     -0.556875    23A     -0.539874    24A     -0.525804  
      25A     -0.511186    26A     -0.492722    27A     -0.447555  
      28A     -0.426413  

    Virtual:                                                              

      29A      0.181922    30A      0.231086    31A      0.250950  
      32A      0.271440    33A      0.281255    34A      0.295551  
      35A      0.298555    36A      0.312685    37A      0.326740  
      38A      0.342064    39A      0.349262    40A      0.387233  
      41A      0.394582    42A      0.418990    43A      0.439308  
      44A      0.503133    45A      0.588245    46A      0.703885  
      47A      0.723010    48A      0.725947    49A      0.731775  
      50A      0.781212    51A      0.790926    52A      0.811376  
      53A      0.850011    54A      0.897256    55A      0.907133  
      56A      0.931554    57A      0.956173    58A      0.986065  
      59A      0.994002    60A      1.054763    61A      1.104334  
      62A      1.121049    63A      1.131106    64A      1.145759  
      65A      1.158039    66A      1.171576    67A      1.183949  
      68A      1.221193    69A      1.230386    70A      1.240036  
      71A      1.247635    72A      1.263464    73A      1.313426  
      74A      1.327309    75A      1.357812    76A      1.391746  
      77A      1.425942    78A      1.477288    79A      1.569916  
      80A      1.599276    81A      1.665871    82A      1.722310  
      83A      1.748752    84A      1.846665    85A      1.896422  
      86A      1.931589    87A      1.975605    88A      2.062038  
      89A      2.076621    90A      2.095496    91A      2.148900  
      92A      2.152006    93A      2.203737    94A      2.246317  
      95A      2.252668    96A      2.267599    97A      2.323851  
      98A      2.345284    99A      2.400009   100A      2.423179  
     101A      2.483459   102A      2.566969   103A      2.589458  
     104A      2.614709   105A      2.648327   106A      2.662923  
     107A      2.693455   108A      2.732734   109A      2.814237  
     110A      2.852845   111A      2.946410   112A      2.969858  
     113A      3.075307   114A      3.115977   115A      3.197819  
     116A      3.285862   117A      3.413030   118A      3.557381  
     119A      4.420401   120A      4.558015   121A      4.621678  
     122A      4.684006   123A      4.833942   124A      4.883833  
     125A      5.000236  

    Final Occupation by Irrep:
              A 
    DOCC [    28 ]

  Energy converged.

  @DF-RHF Final Energy:  -344.87417495229801

   => Energetics <=

    Nuclear Repulsion Energy =            329.7537586800957001
    One-Electron Energy =               -1123.2492990126590939
    Two-Electron Energy =                 448.6213653802654449
    DFT Exchange-Correlation Energy =       0.0000000000000000
    Empirical Dispersion Energy =           0.0000000000000000
    PCM Polarization Energy =               0.0000000000000000
    EFP Energy =                            0.0000000000000000
    Total Energy =                       -344.8741749522980058

    Alert: EFP and PCM quantities not currently incorporated into SCF psivars.

Properties will be evaluated at   0.000000,   0.000000,   0.000000 Bohr
  ==> Properties <==


Properties computed using the SCF density matrix

  Nuclear Dipole Moment: (a.u.)
     X:     3.2923      Y:    -8.4144      Z:    -2.6163

  Electronic Dipole Moment: (a.u.)
     X:    -2.8515      Y:     6.6465      Z:     2.1768

  Dipole Moment: (a.u.)
     X:     0.4408      Y:    -1.7679      Z:    -0.4394     Total:     1.8743

  Dipole Moment: (Debye)
     X:     1.1203      Y:    -4.4936      Z:    -1.1170     Total:     4.7639


  Saving occupied orbitals to File 180.

*** tstop() called on cx1-3-16-4.cx1.hpc.ic.ac.uk at Tue Jul  5 16:51:23 2016
Module time:
	user time   =      11.11 seconds =       0.19 minutes
	system time =       0.08 seconds =       0.00 minutes
	total time  =         12 seconds =       0.20 minutes
Total time:
	user time   =      11.11 seconds =       0.19 minutes
	system time =       0.08 seconds =       0.00 minutes
	total time  =         12 seconds =       0.20 minutes


Properties will be evaluated at   0.000000,   0.000000,   0.000000 Bohr

Properties computed using the  density matrix

  Nuclear Dipole Moment: (a.u.)
     X:     3.2923      Y:    -8.4144      Z:    -2.6163

  Electronic Dipole Moment: (a.u.)
     X:    -2.8515      Y:     6.6465      Z:     2.1768

  Dipole Moment: (a.u.)
     X:     0.4408      Y:    -1.7679      Z:    -0.4394     Total:     1.8743

  Dipole Moment: (Debye)
     X:     1.1203      Y:    -4.4936      Z:    -1.1170     Total:     4.7639

  Quadrupole Moment: (Debye Ang)
    XX:   -42.3346     YY:   -49.3367     ZZ:   -42.2487
    XY:     1.9696     XZ:     1.8650     YZ:    -0.4015

  Traceless Quadrupole Moment: (Debye Ang)
    XX:     2.3054     YY:    -4.6967     ZZ:     2.3913
    XY:     1.9696     XZ:     1.8650     YZ:    -0.4015

  Mulliken Charges: (a.u.)
   Center  Symbol    Alpha    Beta     Spin     Total
       1     O     4.26916  4.26916  0.00000 -0.53831
       2     C     2.60441  2.60441  0.00000  0.79118
       3     C     3.23597  3.23597  0.00000 -0.47193
       4     O     4.30177  4.30177  0.00000 -0.60354
       5     C     3.24784  3.24784  0.00000 -0.49568
       6     H     0.39281  0.39281  0.00000  0.21438
       7     H     0.40541  0.40541  0.00000  0.18918
       8     H     0.40412  0.40412  0.00000  0.19176
       9     H     0.40975  0.40975  0.00000  0.18051
      10     H     0.41196  0.41196  0.00000  0.17608
      11     C     3.02270  3.02270  0.00000 -0.04540
      12     C     3.25446  3.25446  0.00000 -0.50892
      13     H     0.39830  0.39830  0.00000  0.20339
      14     H     0.41283  0.41283  0.00000  0.17435
      15     H     0.40077  0.40077  0.00000  0.19846
      16     H     0.41562  0.41562  0.00000  0.16875
      17     H     0.41213  0.41213  0.00000  0.17575

   Total alpha = 28.00000, Total beta = 28.00000, Total charge = -0.00000


*** PSI4 exiting successfully. Buy a developer a beer!
