    -----------------------------------------------------------------------
          Psi4: An Open-Source Ab Initio Electronic Structure Package
                              Psi4 (no tag) Driver

                          Git: Rev {detached?}  

    J. M. Turney, A. C. Simmonett, R. M. Parrish, E. G. Hohenstein,
    F. A. Evangelista, J. T. Fermann, B. J. Mintz, L. A. Burns, J. J. Wilke,
    M. L. Abrams, N. J. Russ, M. L. Leininger, C. L. Janssen, E. T. Seidl,
    W. D. Allen, H. F. Schaefer, R. A. King, E. F. Valeev, C. D. Sherrill,
    and T. D. Crawford, WIREs Comput. Mol. Sci. 2, 556-565 (2012)
    (doi: 10.1002/wcms.93)

                         Additional Contributions by
    A. E. DePrince, M. Saitow, U. Bozkaya, A. Yu. Sokolov
    -----------------------------------------------------------------------


    Psi4 started on: Tue Jul  5 17:06:30 2016

    Process ID:  17440
    PSI4DATADIR: /export131/home/mjharvey/miniconda3/share
    Memory level set to 256.000 MB

  ==> Input File <==

--------------------------------------------------------------------------
set {
	reference rhf
	basis 6-31G*
}


set_num_threads( 1 )
memory 2 gb

molecule MOL {
0 1

H	 5.268524	 0.192471	 1.070992
C	 4.673736	 -0.214914	 0.259335
C	 3.185378	 -0.203514	 0.605509
H	 4.871837	 0.380453	 -0.627026
H	 5.025590	 -1.224632	 0.065769
C	 2.317601	 -0.778379	 -0.516234
H	 2.874655	 0.814325	 0.817774
H	 3.023650	 -0.778480	 1.515976
C	 2.983926	 -0.739145	 -1.891639
H	 2.052800	 -1.803446	 -0.282222
H	 1.388410	 -0.215613	 -0.570463
C	 4.132863	 -1.722465	 -2.059773
H	 2.252850	 -0.982324	 -2.661160
H	 3.334008	 0.263828	 -2.125441
C	 5.090504	 -1.492487	 -3.215951
O	 4.272201	 -2.653536	 -1.324860
C	 4.424581	 -1.581704	 -4.597164
H	 5.875043	 -2.234647	 -3.129865
H	 5.545453	 -0.510732	 -3.098210
C	 5.433609	 -1.442826	 -5.738735
H	 3.910293	 -2.536270	 -4.686196
H	 3.666467	 -0.809201	 -4.697031
C	 4.782950	 -1.529978	 -7.118572
H	 6.189742	 -2.218442	 -5.645215
H	 5.955312	 -0.493005	 -5.643539
H	 4.280343	 -2.483060	 -7.255493
H	 4.045263	 -0.744390	 -7.255619
H	 5.522373	 -1.430008	 -7.906696

	symmetry c1
}
set optking {
	frozen_dihedral = ("
		12 15 17 21,
		16 12 15 17
	")
}

ee = energy('scf')
oeprop('DIPOLE', 'QUADRUPOLE', 'MULLIKEN_CHARGES')
f=open( 'psi4out.xyz', 'w' )
f.write( "28  " )
f.write( str(ee) + "\n" )
f.write( MOL.save_string_xyz() )
f.close()
--------------------------------------------------------------------------

  Memory set to   2.000 GiB by Python script.

*** tstart() called on cx1-3-4-4.cx1.hpc.ic.ac.uk
*** at Tue Jul  5 17:06:31 2016


         ---------------------------------------------------------
                                   SCF
            by Justin Turney, Rob Parrish, and Andy Simmonett
                              RHF Reference
                        1 Threads,   2000 MiB Core
         ---------------------------------------------------------

  ==> Geometry <==

    Molecular point group: c1
    Full point group: C1

    Geometry (in Angstrom), charge = 0, multiplicity = 1:

       Center              X                  Y                   Z               Mass       
    ------------   -----------------  -----------------  -----------------  -----------------
           H          1.129485509071     1.429687840774     3.638897172758     1.007825032070
           C          0.534697509071     1.022302840774     2.827240172758    12.000000000000
           C         -0.953660490929     1.033702840774     3.173414172758    12.000000000000
           H          0.732798509071     1.617669840774     1.940879172758     1.007825032070
           H          0.886551509071     0.012584840774     2.633674172758     1.007825032070
           C         -1.821437490929     0.458837840774     2.051671172758    12.000000000000
           H         -1.264383490929     2.051541840774     3.385679172758     1.007825032070
           H         -1.115388490929     0.458736840774     4.083881172758     1.007825032070
           C         -1.155112490929     0.498071840774     0.676266172758    12.000000000000
           H         -2.086238490929    -0.566229159226     2.285683172758     1.007825032070
           H         -2.750628490929     1.021603840774     1.997442172758     1.007825032070
           C         -0.006175490929    -0.485248159226     0.508132172758    12.000000000000
           H         -1.886188490929     0.254892840774    -0.093254827242     1.007825032070
           H         -0.805030490929     1.501044840774     0.442464172758     1.007825032070
           C          0.951465509071    -0.255270159226    -0.648045827242    12.000000000000
           O          0.133162509071    -1.416319159226     1.243045172758    15.994914619560
           C          0.285542509071    -0.344487159226    -2.029258827242    12.000000000000
           H          1.736004509071    -0.997430159226    -0.561959827242     1.007825032070
           H          1.406414509071     0.726484840774    -0.530304827242     1.007825032070
           C          1.294570509071    -0.205609159226    -3.170829827242    12.000000000000
           H         -0.228745490929    -1.299053159226    -2.118290827242     1.007825032070
           H         -0.472571490929     0.428015840774    -2.129125827242     1.007825032070
           C          0.643911509071    -0.292761159226    -4.550666827242    12.000000000000
           H          2.050703509071    -0.981225159226    -3.077309827242     1.007825032070
           H          1.816273509071     0.744211840774    -3.075633827242     1.007825032070
           H          0.141304509071    -1.245843159226    -4.687587827242     1.007825032070
           H         -0.093775490929     0.492826840774    -4.687713827242     1.007825032070
           H          1.383334509071    -0.192791159226    -5.338790827242     1.007825032070

  Running in c1 symmetry.

  Rotational constants: A =      0.10227  B =      0.01647  C =      0.01600 [cm^-1]
  Rotational constants: A =   3065.91929  B =    493.66994  C =    479.66662 [MHz]
  Nuclear repulsion =  550.601721149473178

  Charge       = 0
  Multiplicity = 1
  Electrons    = 80
  Nalpha       = 40
  Nbeta        = 40

  ==> Algorithm <==

  SCF Algorithm Type is DF.
  DIIS enabled.
  MOM disabled.
  Fractional occupation disabled.
  Guess Type is CORE.
  Energy threshold   = 1.00e-06
  Density threshold  = 1.00e-06
  Integral threshold = 0.00e+00

  ==> Primary Basis <==

  Basis Set: 6-31G*
    Number of shells: 96
    Number of basis function: 186
    Number of Cartesian functions: 186
    Spherical Harmonics?: false
    Max angular momentum: 2

  ==> Pre-Iterations <==

   -------------------------------------------------------
    Irrep   Nso     Nmo     Nalpha   Nbeta   Ndocc  Nsocc
   -------------------------------------------------------
     A        186     186       0       0       0       0
   -------------------------------------------------------
    Total     186     186      40      40      40       0
   -------------------------------------------------------

 OEINTS: Overlap, kinetic, potential, dipole, and quadrupole integrals
         stored in file 35.

  ==> Integral Setup <==

  ==> DFJK: Density-Fitted J/K Matrices <==

    J tasked:                  Yes
    K tasked:                  Yes
    wK tasked:                  No
    OpenMP threads:              1
    Integrals threads:           1
    Memory (MB):              1430
    Algorithm:                Core
    Integral Cache:           NONE
    Schwarz Cutoff:          1E-12
    Fitting Condition:       1E-12

   => Auxiliary Basis Set <=

  Basis Set: 
    Number of shells: 402
    Number of basis function: 1260
    Number of Cartesian functions: 1260
    Spherical Harmonics?: false
    Max angular momentum: 3

  Minimum eigenvalue in the overlap matrix is 2.7579038314E-03.
  Using Symmetric Orthogonalization.
  SCF Guess: Core (One-Electron) Hamiltonian.

  ==> Iterations <==

                           Total Energy        Delta E     RMS |[F,P]|

   @DF-RHF iter   1:  -233.67732508879726   -2.33677e+02   6.99638e-02 
   @DF-RHF iter   2:    -7.72455702224102    2.25953e+02   6.60506e-02 DIIS
   @DF-RHF iter   3:  -235.68875554335068   -2.27964e+02   6.11774e-02 DIIS
   @DF-RHF iter   4:  -293.48824770608576   -5.77995e+01   6.03232e-02 DIIS
   @DF-RHF iter   5:  -385.51331548491999   -9.20251e+01   2.88698e-02 DIIS
   @DF-RHF iter   6:  -287.28347206685839    9.82298e+01   5.37014e-02 DIIS
   @DF-RHF iter   7:  -417.89964324903031   -1.30616e+02   1.39846e-02 DIIS
   @DF-RHF iter   8:  -423.62678058325400   -5.72714e+00   8.49698e-03 DIIS
   @DF-RHF iter   9:  -426.10057400723031   -2.47379e+00   1.40365e-03 DIIS
   @DF-RHF iter  10:  -426.14352517095506   -4.29512e-02   5.46492e-04 DIIS
   @DF-RHF iter  11:  -426.15019311307992   -6.66794e-03   1.83812e-04 DIIS
   @DF-RHF iter  12:  -426.15135887134329   -1.16576e-03   7.39333e-05 DIIS
   @DF-RHF iter  13:  -426.15154049536557   -1.81624e-04   2.65248e-05 DIIS
   @DF-RHF iter  14:  -426.15156669874955   -2.62034e-05   1.40570e-05 DIIS
   @DF-RHF iter  15:  -426.15157241100928   -5.71226e-06   3.87292e-06 DIIS
   @DF-RHF iter  16:  -426.15157318812930   -7.77120e-07   1.45730e-06 DIIS
   @DF-RHF iter  17:  -426.15157332146475   -1.33335e-07   5.68398e-07 DIIS

  ==> Post-Iterations <==

    Orbital Energies (a.u.)
    -----------------------

    Doubly Occupied:                                                      

       1A    -20.545873     2A    -11.323434     3A    -11.232800  
       4A    -11.229685     5A    -11.229482     6A    -11.226350  
       7A    -11.216519     8A    -11.215355     9A    -11.211659  
      10A    -11.198414    11A     -1.394992    12A     -1.096539  
      13A     -1.080334    14A     -1.020256    15A     -0.984184  
      16A     -0.913958    17A     -0.881829    18A     -0.809133  
      19A     -0.787967    20A     -0.721077    21A     -0.670472  
      22A     -0.652791    23A     -0.644009    24A     -0.625374  
      25A     -0.604676    26A     -0.594115    27A     -0.578597  
      28A     -0.554509    29A     -0.544136    30A     -0.532773  
      31A     -0.527985    32A     -0.510491    33A     -0.507171  
      34A     -0.484797    35A     -0.478499    36A     -0.475926  
      37A     -0.466823    38A     -0.458415    39A     -0.442509  
      40A     -0.392910  

    Virtual:                                                              

      41A      0.163641    42A      0.217460    43A      0.232021  
      44A      0.252084    45A      0.269929    46A      0.271482  
      47A      0.284635    48A      0.288117    49A      0.307058  
      50A      0.312730    51A      0.320442    52A      0.327578  
      53A      0.336927    54A      0.342375    55A      0.342912  
      56A      0.348672    57A      0.355448    58A      0.365296  
      59A      0.387984    60A      0.389884    61A      0.401401  
      62A      0.419081    63A      0.441543    64A      0.446841  
      65A      0.462657    66A      0.489451    67A      0.528980  
      68A      0.572029    69A      0.683695    70A      0.712015  
      71A      0.734279    72A      0.743434    73A      0.746047  
      74A      0.753278    75A      0.768273    76A      0.779867  
      77A      0.795784    78A      0.822905    79A      0.824896  
      80A      0.860531    81A      0.901335    82A      0.909533  
      83A      0.931056    84A      0.932125    85A      0.958914  
      86A      0.986064    87A      0.996422    88A      1.012671  
      89A      1.035690    90A      1.055102    91A      1.076610  
      92A      1.086219    93A      1.106227    94A      1.115844  
      95A      1.137417    96A      1.141104    97A      1.156354  
      98A      1.161584    99A      1.161985   100A      1.165705  
     101A      1.176867   102A      1.188953   103A      1.195297  
     104A      1.207043   105A      1.209177   106A      1.215380  
     107A      1.222030   108A      1.233391   109A      1.250363  
     110A      1.257872   111A      1.264392   112A      1.289762  
     113A      1.305792   114A      1.329457   115A      1.363841  
     116A      1.419864   117A      1.448647   118A      1.475259  
     119A      1.504216   120A      1.575552   121A      1.638019  
     122A      1.646271   123A      1.700835   124A      1.727579  
     125A      1.738110   126A      1.804041   127A      1.817259  
     128A      1.891473   129A      1.939334   130A      1.971031  
     131A      2.004795   132A      2.028989   133A      2.066282  
     134A      2.087240   135A      2.118822   136A      2.135133  
     137A      2.154271   138A      2.171263   139A      2.194979  
     140A      2.212064   141A      2.238484   142A      2.267414  
     143A      2.272261   144A      2.288246   145A      2.306525  
     146A      2.326648   147A      2.327930   148A      2.342934  
     149A      2.379735   150A      2.430592   151A      2.466727  
     152A      2.495303   153A      2.551576   154A      2.573543  
     155A      2.600502   156A      2.615161   157A      2.650487  
     158A      2.677834   159A      2.706376   160A      2.708954  
     161A      2.718441   162A      2.751788   163A      2.765390  
     164A      2.780486   165A      2.835730   166A      2.877090  
     167A      2.916777   168A      2.928245   169A      2.983302  
     170A      2.991935   171A      3.054212   172A      3.103827  
     173A      3.113814   174A      3.209538   175A      3.400629  
     176A      3.414897   177A      4.532680   178A      4.541498  
     179A      4.601224   180A      4.657085   181A      4.744100  
     182A      4.802077   183A      4.835431   184A      4.909288  
     185A      5.021421   186A      5.031370  

    Final Occupation by Irrep:
              A 
    DOCC [    40 ]

  Energy converged.

  @DF-RHF Final Energy:  -426.15157332146475

   => Energetics <=

    Nuclear Repulsion Energy =            550.6017211494731782
    One-Electron Energy =               -1669.3731715857870768
    Two-Electron Energy =                 692.6198771148514197
    DFT Exchange-Correlation Energy =       0.0000000000000000
    Empirical Dispersion Energy =           0.0000000000000000
    PCM Polarization Energy =               0.0000000000000000
    EFP Energy =                            0.0000000000000000
    Total Energy =                       -426.1515733214624788

    Alert: EFP and PCM quantities not currently incorporated into SCF psivars.

Properties will be evaluated at   0.000000,   0.000000,   0.000000 Bohr
  ==> Properties <==


Properties computed using the SCF density matrix

  Nuclear Dipole Moment: (a.u.)
     X:     0.5443      Y:     5.1087      Z:    -5.5170

  Electronic Dipole Moment: (a.u.)
     X:    -0.6905      Y:    -4.3159      Z:     4.7062

  Dipole Moment: (a.u.)
     X:    -0.1462      Y:     0.7929      Z:    -0.8109     Total:     1.1434

  Dipole Moment: (Debye)
     X:    -0.3715      Y:     2.0152      Z:    -2.0610     Total:     2.9063


  Saving occupied orbitals to File 180.

*** tstop() called on cx1-3-4-4.cx1.hpc.ic.ac.uk at Tue Jul  5 17:07:13 2016
Module time:
	user time   =      42.05 seconds =       0.70 minutes
	system time =       0.37 seconds =       0.01 minutes
	total time  =         42 seconds =       0.70 minutes
Total time:
	user time   =      42.05 seconds =       0.70 minutes
	system time =       0.37 seconds =       0.01 minutes
	total time  =         42 seconds =       0.70 minutes


Properties will be evaluated at   0.000000,   0.000000,   0.000000 Bohr

Properties computed using the  density matrix

  Nuclear Dipole Moment: (a.u.)
     X:     0.5443      Y:     5.1087      Z:    -5.5170

  Electronic Dipole Moment: (a.u.)
     X:    -0.6905      Y:    -4.3159      Z:     4.7062

  Dipole Moment: (a.u.)
     X:    -0.1462      Y:     0.7929      Z:    -0.8109     Total:     1.1434

  Dipole Moment: (Debye)
     X:    -0.3715      Y:     2.0152      Z:    -2.0610     Total:     2.9063

  Quadrupole Moment: (Debye Ang)
    XX:   -64.2477     YY:   -68.7144     ZZ:   -66.6168
    XY:     0.1236     XZ:    -1.4834     YZ:     3.3290

  Traceless Quadrupole Moment: (Debye Ang)
    XX:     2.2786     YY:    -2.1881     ZZ:    -0.0905
    XY:     0.1236     XZ:    -1.4834     YZ:     3.3290

  Mulliken Charges: (a.u.)
   Center  Symbol    Alpha    Beta     Spin     Total
       1     H     0.41849  0.41849  0.00000  0.16302
       2     C     3.26751  3.26751  0.00000 -0.53503
       3     C     3.14825  3.14825  0.00000 -0.29650
       4     H     0.43020  0.43020  0.00000  0.13960
       5     H     0.39142  0.39142  0.00000  0.21717
       6     C     3.15309  3.15309  0.00000 -0.30617
       7     H     0.42330  0.42330  0.00000  0.15340
       8     H     0.41654  0.41654  0.00000  0.16693
       9     C     3.21637  3.21637  0.00000 -0.43273
      10     H     0.40502  0.40502  0.00000  0.18996
      11     H     0.41935  0.41935  0.00000  0.16130
      12     C     2.72744  2.72744  0.00000  0.54512
      13     H     0.40195  0.40195  0.00000  0.19610
      14     H     0.41082  0.41082  0.00000  0.17835
      15     C     3.20154  3.20154  0.00000 -0.40308
      16     O     4.27163  4.27163  0.00000 -0.54326
      17     C     3.16390  3.16390  0.00000 -0.32780
      18     H     0.39968  0.39968  0.00000  0.20064
      19     H     0.41198  0.41198  0.00000  0.17604
      20     C     3.15188  3.15188  0.00000 -0.30377
      21     H     0.41360  0.41360  0.00000  0.17280
      22     H     0.41844  0.41844  0.00000  0.16313
      23     C     3.24035  3.24035  0.00000 -0.48071
      24     H     0.41834  0.41834  0.00000  0.16331
      25     H     0.42136  0.42136  0.00000  0.15729
      26     H     0.41958  0.41958  0.00000  0.16084
      27     H     0.42116  0.42116  0.00000  0.15768
      28     H     0.41682  0.41682  0.00000  0.16637

   Total alpha = 40.00000, Total beta = 40.00000, Total charge = -0.00000


*** PSI4 exiting successfully. Buy a developer a beer!
