    -----------------------------------------------------------------------
          Psi4: An Open-Source Ab Initio Electronic Structure Package
                              Psi4 (no tag) Driver

                          Git: Rev {detached?}  

    J. M. Turney, A. C. Simmonett, R. M. Parrish, E. G. Hohenstein,
    F. A. Evangelista, J. T. Fermann, B. J. Mintz, L. A. Burns, J. J. Wilke,
    M. L. Abrams, N. J. Russ, M. L. Leininger, C. L. Janssen, E. T. Seidl,
    W. D. Allen, H. F. Schaefer, R. A. King, E. F. Valeev, C. D. Sherrill,
    and T. D. Crawford, WIREs Comput. Mol. Sci. 2, 556-565 (2012)
    (doi: 10.1002/wcms.93)

                         Additional Contributions by
    A. E. DePrince, M. Saitow, U. Bozkaya, A. Yu. Sokolov
    -----------------------------------------------------------------------


    Psi4 started on: Tue Jul  5 16:26:43 2016

    Process ID:  28401
    PSI4DATADIR: /export131/home/mjharvey/miniconda3/share
    Memory level set to 256.000 MB

  ==> Input File <==

--------------------------------------------------------------------------
set {
	reference rhf
	basis 6-31G*
}


set_num_threads( 1 )
memory 2 gb

molecule MOL {
0 1

H	 0.000066	 2.886332	 0.000017
C	 0.000055	 1.810473	 0.000012
C	 1.192613	 1.111365	 -0.000015
C	 -1.192533	 1.111406	 0.000027
H	 2.136409	 1.624271	 -0.000023
C	 1.144757	 -0.276701	 -0.000033
H	 -2.136301	 1.624355	 0.000038
C	 -1.144813	 -0.276669	 0.000016
N	 -0.000001	 -0.941580	 -0.000015
C	 2.399333	 -1.112246	 -0.000020
C	 -2.399364	 -1.112128	 0.000018
H	 2.419485	 -1.754702	 -0.873518
H	 3.291710	 -0.497566	 -0.000808
H	 2.420261	 -1.753422	 0.874387
H	 -2.420168	 -1.753897	 -0.874030
H	 -3.291860	 -0.497525	 0.000036
H	 -2.420148	 -1.753920	 0.874049

	symmetry c1
}
ee = energy('scf')
oeprop('DIPOLE', 'QUADRUPOLE', 'MULLIKEN_CHARGES')
oeprop('GRID_ESP')
f=open( 'psi4out.xyz', 'w' )
f.write( "17  " )
f.write( str(ee) + "\n" )
f.write( MOL.save_string_xyz() )
f.close()
--------------------------------------------------------------------------

  Memory set to   2.000 GiB by Python script.

*** tstart() called on cx1-3-6-1.cx1.hpc.ic.ac.uk
*** at Tue Jul  5 16:26:43 2016


         ---------------------------------------------------------
                                   SCF
            by Justin Turney, Rob Parrish, and Andy Simmonett
                              RHF Reference
                        1 Threads,   2000 MiB Core
         ---------------------------------------------------------

  ==> Geometry <==

    Molecular point group: c1
    Full point group: C1

    Geometry (in Angstrom), charge = 0, multiplicity = 1:

       Center              X                  Y                   Z               Mass       
    ------------   -----------------  -----------------  -----------------  -----------------
           H          0.000065890501     2.886423234159     0.000017008293     1.007825032070
           C          0.000054890501     1.810564234159     0.000012008293    12.000000000000
           C          1.192612890501     1.111456234159    -0.000014991707    12.000000000000
           C         -1.192533109499     1.111497234159     0.000027008293    12.000000000000
           H          2.136408890501     1.624362234159    -0.000022991707     1.007825032070
           C          1.144756890501    -0.276609765841    -0.000032991707    12.000000000000
           H         -2.136301109499     1.624446234159     0.000038008293     1.007825032070
           C         -1.144813109499    -0.276577765841     0.000016008293    12.000000000000
           N         -0.000001109499    -0.941488765841    -0.000014991707    14.003074004780
           C          2.399332890501    -1.112154765841    -0.000019991707    12.000000000000
           C         -2.399364109499    -1.112036765841     0.000018008293    12.000000000000
           H          2.419484890501    -1.754610765841    -0.873517991707     1.007825032070
           H          3.291709890501    -0.497474765841    -0.000807991707     1.007825032070
           H          2.420260890501    -1.753330765841     0.874387008293     1.007825032070
           H         -2.420168109499    -1.753805765841    -0.874029991707     1.007825032070
           H         -3.291860109499    -0.497433765841     0.000036008293     1.007825032070
           H         -2.420148109499    -1.753828765841     0.874049008293     1.007825032070

  Running in c1 symmetry.

  Rotational constants: A =      0.11821  B =      0.06447  C =      0.04236 [cm^-1]
  Rotational constants: A =   3543.73899  B =   1932.75910  C =   1270.00829 [MHz]
  Nuclear repulsion =  348.064544864437323

  Charge       = 0
  Multiplicity = 1
  Electrons    = 58
  Nalpha       = 29
  Nbeta        = 29

  ==> Algorithm <==

  SCF Algorithm Type is DF.
  DIIS enabled.
  MOM disabled.
  Fractional occupation disabled.
  Guess Type is CORE.
  Energy threshold   = 1.00e-06
  Density threshold  = 1.00e-06
  Integral threshold = 0.00e+00

  ==> Primary Basis <==

  Basis Set: 6-31G*
    Number of shells: 66
    Number of basis function: 138
    Number of Cartesian functions: 138
    Spherical Harmonics?: false
    Max angular momentum: 2

  ==> Pre-Iterations <==

   -------------------------------------------------------
    Irrep   Nso     Nmo     Nalpha   Nbeta   Ndocc  Nsocc
   -------------------------------------------------------
     A        138     138       0       0       0       0
   -------------------------------------------------------
    Total     138     138      29      29      29       0
   -------------------------------------------------------

 OEINTS: Overlap, kinetic, potential, dipole, and quadrupole integrals
         stored in file 35.

  ==> Integral Setup <==

  ==> DFJK: Density-Fitted J/K Matrices <==

    J tasked:                  Yes
    K tasked:                  Yes
    wK tasked:                  No
    OpenMP threads:              1
    Integrals threads:           1
    Memory (MB):              1430
    Algorithm:                Core
    Integral Cache:           NONE
    Schwarz Cutoff:          1E-12
    Fitting Condition:       1E-12

   => Auxiliary Basis Set <=

  Basis Set: 
    Number of shells: 273
    Number of basis function: 873
    Number of Cartesian functions: 873
    Spherical Harmonics?: false
    Max angular momentum: 3

  Minimum eigenvalue in the overlap matrix is 7.4309464897E-04.
  Using Symmetric Orthogonalization.
  SCF Guess: Core (One-Electron) Hamiltonian.

  ==> Iterations <==

                           Total Energy        Delta E     RMS |[F,P]|

   @DF-RHF iter   1:  -233.74219604878880   -2.33742e+02   7.16094e-02 
   @DF-RHF iter   2:  -212.47288971270399    2.12693e+01   5.68154e-02 DIIS
   @DF-RHF iter   3:  -255.51568220397331   -4.30428e+01   5.62954e-02 DIIS
   @DF-RHF iter   4:  -309.10366277728627   -5.35880e+01   3.51700e-02 DIIS
   @DF-RHF iter   5:  -318.69738726515078   -9.59372e+00   2.03427e-02 DIIS
   @DF-RHF iter   6:  -324.18059421524225   -5.48321e+00   8.22551e-03 DIIS
   @DF-RHF iter   7:  -324.73972551044488   -5.59131e-01   1.68328e-03 DIIS
   @DF-RHF iter   8:  -324.77174308767434   -3.20176e-02   5.96758e-04 DIIS
   @DF-RHF iter   9:  -324.77628307812853   -4.53999e-03   1.18355e-04 DIIS
   @DF-RHF iter  10:  -324.77662120507006   -3.38127e-04   6.70607e-05 DIIS
   @DF-RHF iter  11:  -324.77672620412187   -1.04999e-04   3.39200e-05 DIIS
   @DF-RHF iter  12:  -324.77676605474579   -3.98506e-05   1.15894e-05 DIIS
   @DF-RHF iter  13:  -324.77677235095979   -6.29621e-06   3.76660e-06 DIIS
   @DF-RHF iter  14:  -324.77677281809491   -4.67135e-07   1.24295e-06 DIIS
   @DF-RHF iter  15:  -324.77677284654095   -2.84460e-08   3.37043e-07 DIIS

  ==> Post-Iterations <==

    Orbital Energies (a.u.)
    -----------------------

    Doubly Occupied:                                                      

       1A    -15.545759     2A    -11.271543     3A    -11.271526  
       4A    -11.248429     5A    -11.224665     6A    -11.224622  
       7A    -11.215342     8A    -11.215328     9A     -1.259677  
      10A     -1.080452    11A     -1.068859    12A     -0.974240  
      13A     -0.931960    14A     -0.829639    15A     -0.811365  
      16A     -0.685285    17A     -0.667864    18A     -0.615887  
      19A     -0.592112    20A     -0.575826    21A     -0.568017  
      22A     -0.566899    23A     -0.533577    24A     -0.531752  
      25A     -0.498154    26A     -0.497645    27A     -0.397761  
      28A     -0.371194    29A     -0.324050  

    Virtual:                                                              

      30A      0.128116    31A      0.153501    32A      0.242168  
      33A      0.267825    34A      0.273841    35A      0.300861  
      36A      0.313884    37A      0.316207    38A      0.339305  
      39A      0.342446    40A      0.353844    41A      0.401752  
      42A      0.407985    43A      0.421589    44A      0.458655  
      45A      0.503893    46A      0.539615    47A      0.549650  
      48A      0.669679    49A      0.681976    50A      0.737849  
      51A      0.747950    52A      0.750160    53A      0.754613  
      54A      0.767537    55A      0.787694    56A      0.813004  
      57A      0.819235    58A      0.856471    59A      0.873245  
      60A      0.896246    61A      0.905611    62A      0.935838  
      63A      0.942947    64A      0.958838    65A      0.982568  
      66A      1.018286    67A      1.037864    68A      1.102963  
      69A      1.125756    70A      1.134497    71A      1.155017  
      72A      1.158849    73A      1.163790    74A      1.186847  
      75A      1.190256    76A      1.210521    77A      1.211890  
      78A      1.242485    79A      1.247949    80A      1.255038  
      81A      1.315525    82A      1.363829    83A      1.364691  
      84A      1.443772    85A      1.513874    86A      1.533922  
      87A      1.598827    88A      1.621639    89A      1.692519  
      90A      1.728314    91A      1.743329    92A      1.749268  
      93A      1.767301    94A      1.807670    95A      1.859604  
      96A      1.970413    97A      2.082315    98A      2.111441  
      99A      2.169992   100A      2.180365   101A      2.209650  
     102A      2.212769   103A      2.218631   104A      2.242779  
     105A      2.272576   106A      2.388069   107A      2.450199  
     108A      2.490652   109A      2.513826   110A      2.534642  
     111A      2.562976   112A      2.564084   113A      2.615607  
     114A      2.661938   115A      2.664575   116A      2.678869  
     117A      2.702911   118A      2.705634   119A      2.748851  
     120A      2.844806   121A      2.955796   122A      2.960363  
     123A      3.077089   124A      3.083681   125A      3.174323  
     126A      3.186760   127A      3.228597   128A      3.291709  
     129A      3.544014   130A      3.854370   131A      4.493818  
     132A      4.536043   133A      4.611733   134A      4.664335  
     135A      4.667807   136A      4.853434   137A      4.879335  
     138A      5.070572  

    Final Occupation by Irrep:
              A 
    DOCC [    29 ]

  Energy converged.

  @DF-RHF Final Energy:  -324.77677284654095

   => Energetics <=

    Nuclear Repulsion Energy =            348.0645448644373232
    One-Electron Energy =               -1128.4838617558671103
    Two-Electron Energy =                 455.6425440448887230
    DFT Exchange-Correlation Energy =       0.0000000000000000
    Empirical Dispersion Energy =           0.0000000000000000
    PCM Polarization Energy =               0.0000000000000000
    EFP Energy =                            0.0000000000000000
    Total Energy =                       -324.7767728465411210

    Alert: EFP and PCM quantities not currently incorporated into SCF psivars.

Properties will be evaluated at   0.000000,   0.000000,   0.000000 Bohr
  ==> Properties <==


Properties computed using the SCF density matrix

  Nuclear Dipole Moment: (a.u.)
     X:    -0.0005      Y:    -1.7553      Z:     0.0001

  Electronic Dipole Moment: (a.u.)
     X:     0.0004      Y:     2.3811      Z:    -0.0001

  Dipole Moment: (a.u.)
     X:    -0.0001      Y:     0.6258      Z:     0.0000     Total:     0.6258

  Dipole Moment: (Debye)
     X:    -0.0003      Y:     1.5908      Z:     0.0001     Total:     1.5908


  Saving occupied orbitals to File 180.

*** tstop() called on cx1-3-6-1.cx1.hpc.ic.ac.uk at Tue Jul  5 16:26:57 2016
Module time:
	user time   =      13.35 seconds =       0.22 minutes
	system time =       0.06 seconds =       0.00 minutes
	total time  =         14 seconds =       0.23 minutes
Total time:
	user time   =      13.35 seconds =       0.22 minutes
	system time =       0.06 seconds =       0.00 minutes
	total time  =         14 seconds =       0.23 minutes


Properties will be evaluated at   0.000000,   0.000000,   0.000000 Bohr

Properties computed using the  density matrix

  Nuclear Dipole Moment: (a.u.)
     X:    -0.0005      Y:    -1.7553      Z:     0.0001

  Electronic Dipole Moment: (a.u.)
     X:     0.0004      Y:     2.3811      Z:    -0.0001

  Dipole Moment: (a.u.)
     X:    -0.0001      Y:     0.6258      Z:     0.0000     Total:     0.6258

  Dipole Moment: (Debye)
     X:    -0.0003      Y:     1.5908      Z:     0.0001     Total:     1.5908

  Quadrupole Moment: (Debye Ang)
    XX:   -42.2261     YY:   -46.7852     ZZ:   -50.3903
    XY:     0.0007     XZ:     0.0002     YZ:     0.0000

  Traceless Quadrupole Moment: (Debye Ang)
    XX:     4.2411     YY:    -0.3180     ZZ:    -3.9231
    XY:     0.0007     XZ:     0.0002     YZ:     0.0000

  Mulliken Charges: (a.u.)
   Center  Symbol    Alpha    Beta     Spin     Total
       1     H     0.39507  0.39507  0.00000  0.20987
       2     C     3.06534  3.06534  0.00000 -0.13068
       3     C     3.13998  3.13998  0.00000 -0.27997
       4     C     3.13998  3.13998  0.00000 -0.27995
       5     H     0.39875  0.39875  0.00000  0.20250
       6     C     2.85229  2.85229  0.00000  0.29542
       7     H     0.39875  0.39875  0.00000  0.20249
       8     C     2.85226  2.85226  0.00000  0.29548
       9     N     3.79835  3.79835  0.00000 -0.59669
      10     C     3.24997  3.24997  0.00000 -0.49994
      11     C     3.24999  3.24999  0.00000 -0.49998
      12     H     0.40579  0.40579  0.00000  0.18842
      13     H     0.41805  0.41805  0.00000  0.16390
      14     H     0.40580  0.40580  0.00000  0.18841
      15     H     0.40580  0.40580  0.00000  0.18841
      16     H     0.41805  0.41805  0.00000  0.16390
      17     H     0.40580  0.40580  0.00000  0.18841

   Total alpha = 29.00000, Total beta = 29.00000, Total charge = -0.00000



Properties will be evaluated at   0.000000,   0.000000,   0.000000 Bohr

Properties computed using the  density matrix


 Electrostatic potential computed on the grid and written to grid_esp.dat

*** PSI4 exiting successfully. Buy a developer a beer!
