    -----------------------------------------------------------------------
          Psi4: An Open-Source Ab Initio Electronic Structure Package
                              Psi4 (no tag) Driver

                          Git: Rev {detached?}  

    J. M. Turney, A. C. Simmonett, R. M. Parrish, E. G. Hohenstein,
    F. A. Evangelista, J. T. Fermann, B. J. Mintz, L. A. Burns, J. J. Wilke,
    M. L. Abrams, N. J. Russ, M. L. Leininger, C. L. Janssen, E. T. Seidl,
    W. D. Allen, H. F. Schaefer, R. A. King, E. F. Valeev, C. D. Sherrill,
    and T. D. Crawford, WIREs Comput. Mol. Sci. 2, 556-565 (2012)
    (doi: 10.1002/wcms.93)

                         Additional Contributions by
    A. E. DePrince, M. Saitow, U. Bozkaya, A. Yu. Sokolov
    -----------------------------------------------------------------------


    Psi4 started on: Tue Jul  5 16:36:20 2016

    Process ID:  27304
    PSI4DATADIR: /export131/home/mjharvey/miniconda3/share
    Memory level set to 256.000 MB

  ==> Input File <==

--------------------------------------------------------------------------
set {
	reference rhf
	basis 6-31G*
}


set_num_threads( 1 )
memory 2 gb

molecule MOL {
0 1

H	 -1.748661	 -2.220942	 -0.005015
C	 -1.343207	 -1.225221	 -0.013879
N	 -0.055091	 -1.100174	 -0.261126
C	 -2.150779	 -0.125890	 0.222726
C	 0.449969	 0.122615	 -0.277109
H	 -3.200618	 -0.238980	 0.422496
N	 -1.660212	 1.097703	 0.209594
C	 -0.371804	 1.219904	 -0.038265
C	 1.928147	 0.267347	 -0.541394
H	 0.029131	 2.217482	 -0.051283
C	 2.783535	 -0.434896	 0.518406
H	 2.142690	 -0.156173	 -1.516825
H	 2.186767	 1.320621	 -0.585035
H	 3.838511	 -0.334820	 0.283868
H	 2.543464	 -1.490776	 0.562713
H	 2.615969	 -0.007826	 1.502196

	symmetry c1
}
ee = energy('scf')
oeprop('DIPOLE', 'QUADRUPOLE', 'MULLIKEN_CHARGES')
f=open( 'psi4out.xyz', 'w' )
f.write( "16  " )
f.write( str(ee) + "\n" )
f.write( MOL.save_string_xyz() )
f.close()
--------------------------------------------------------------------------

  Memory set to   2.000 GiB by Python script.

*** tstart() called on cx1-3-6-2.cx1.hpc.ic.ac.uk
*** at Tue Jul  5 16:36:21 2016


         ---------------------------------------------------------
                                   SCF
            by Justin Turney, Rob Parrish, and Andy Simmonett
                              RHF Reference
                        1 Threads,   2000 MiB Core
         ---------------------------------------------------------

  ==> Geometry <==

    Molecular point group: c1
    Full point group: C1

    Geometry (in Angstrom), charge = 0, multiplicity = 1:

       Center              X                  Y                   Z               Mass       
    ------------   -----------------  -----------------  -----------------  -----------------
           H         -1.748696691861    -2.192563403145     0.010325917626     1.007825032070
           C         -1.343242691861    -1.196842403145     0.001461917626    12.000000000000
           N         -0.055126691861    -1.071795403145    -0.245785082374    14.003074004780
           C         -2.150814691861    -0.097511403145     0.238066917626    12.000000000000
           C          0.449933308139     0.150993596855    -0.261768082374    12.000000000000
           H         -3.200653691861    -0.210601403145     0.437836917626     1.007825032070
           N         -1.660247691861     1.126081596855     0.224934917626    14.003074004780
           C         -0.371839691861     1.248282596855    -0.022924082374    12.000000000000
           C          1.928111308139     0.295725596855    -0.526053082374    12.000000000000
           H          0.029095308139     2.245860596855    -0.035942082374     1.007825032070
           C          2.783499308139    -0.406517403145     0.533746917626    12.000000000000
           H          2.142654308139    -0.127794403145    -1.501484082374     1.007825032070
           H          2.186731308139     1.348999596855    -0.569694082374     1.007825032070
           H          3.838475308139    -0.306441403145     0.299208917626     1.007825032070
           H          2.543428308139    -1.462397403145     0.578053917626     1.007825032070
           H          2.615933308139     0.020552596855     1.517536917626     1.007825032070

  Running in c1 symmetry.

  Rotational constants: A =      0.16572  B =      0.05192  C =      0.04257 [cm^-1]
  Rotational constants: A =   4968.09748  B =   1556.66283  C =   1276.36330 [MHz]
  Nuclear repulsion =  349.948023779282778

  Charge       = 0
  Multiplicity = 1
  Electrons    = 58
  Nalpha       = 29
  Nbeta        = 29

  ==> Algorithm <==

  SCF Algorithm Type is DF.
  DIIS enabled.
  MOM disabled.
  Fractional occupation disabled.
  Guess Type is CORE.
  Energy threshold   = 1.00e-06
  Density threshold  = 1.00e-06
  Integral threshold = 0.00e+00

  ==> Primary Basis <==

  Basis Set: 6-31G*
    Number of shells: 64
    Number of basis function: 136
    Number of Cartesian functions: 136
    Spherical Harmonics?: false
    Max angular momentum: 2

  ==> Pre-Iterations <==

   -------------------------------------------------------
    Irrep   Nso     Nmo     Nalpha   Nbeta   Ndocc  Nsocc
   -------------------------------------------------------
     A        136     136       0       0       0       0
   -------------------------------------------------------
    Total     136     136      29      29      29       0
   -------------------------------------------------------

 OEINTS: Overlap, kinetic, potential, dipole, and quadrupole integrals
         stored in file 35.

  ==> Integral Setup <==

  ==> DFJK: Density-Fitted J/K Matrices <==

    J tasked:                  Yes
    K tasked:                  Yes
    wK tasked:                  No
    OpenMP threads:              1
    Integrals threads:           1
    Memory (MB):              1430
    Algorithm:                Core
    Integral Cache:           NONE
    Schwarz Cutoff:          1E-12
    Fitting Condition:       1E-12

   => Auxiliary Basis Set <=

  Basis Set: 
    Number of shells: 264
    Number of basis function: 848
    Number of Cartesian functions: 848
    Spherical Harmonics?: false
    Max angular momentum: 3

  Minimum eigenvalue in the overlap matrix is 1.1633134979E-03.
  Using Symmetric Orthogonalization.
  SCF Guess: Core (One-Electron) Hamiltonian.

  ==> Iterations <==

                           Total Energy        Delta E     RMS |[F,P]|

   @DF-RHF iter   1:  -252.39214229518205   -2.52392e+02   6.95116e-02 
   @DF-RHF iter   2:  -127.10750260631136    1.25285e+02   8.12452e-02 DIIS
   @DF-RHF iter   3:  -232.22954591619958   -1.05122e+02   6.20749e-02 DIIS
   @DF-RHF iter   4:  -276.11187648737581   -4.38823e+01   6.36096e-02 DIIS
   @DF-RHF iter   5:  -339.61667113169386   -6.35048e+01   9.98048e-03 DIIS
   @DF-RHF iter   6:  -340.40401236169276   -7.87341e-01   6.33761e-03 DIIS
   @DF-RHF iter   7:  -340.74024482535418   -3.36232e-01   1.07175e-03 DIIS
   @DF-RHF iter   8:  -340.75372175930005   -1.34769e-02   5.31759e-04 DIIS
   @DF-RHF iter   9:  -340.75730893664905   -3.58718e-03   1.65809e-04 DIIS
   @DF-RHF iter  10:  -340.75802697714238   -7.18040e-04   8.30925e-05 DIIS
   @DF-RHF iter  11:  -340.75827693377431   -2.49957e-04   3.76056e-05 DIIS
   @DF-RHF iter  12:  -340.75833481994272   -5.78862e-05   1.41917e-05 DIIS
   @DF-RHF iter  13:  -340.75834348915004   -8.66921e-06   5.20645e-06 DIIS
   @DF-RHF iter  14:  -340.75834465843735   -1.16929e-06   2.12447e-06 DIIS
   @DF-RHF iter  15:  -340.75834482763588   -1.69199e-07   5.86653e-07 DIIS

  ==> Post-Iterations <==

    Orbital Energies (a.u.)
    -----------------------

    Doubly Occupied:                                                      

       1A    -15.586962     2A    -15.582479     3A    -11.281220  
       4A    -11.276830     5A    -11.272353     6A    -11.271990  
       7A    -11.233038     8A    -11.216413     9A     -1.313580  
      10A     -1.222232    11A     -1.084301    12A     -1.013436  
      13A     -0.905980    14A     -0.892141    15A     -0.827250  
      16A     -0.716852    17A     -0.709221    18A     -0.659179  
      19A     -0.615628    20A     -0.602453    21A     -0.577601  
      22A     -0.560142    23A     -0.521602    24A     -0.505130  
      25A     -0.499871    26A     -0.486937    27A     -0.428694  
      28A     -0.395024    29A     -0.345341  

    Virtual:                                                              

      30A      0.102935    31A      0.135084    32A      0.246075  
      33A      0.272177    34A      0.277646    35A      0.301076  
      36A      0.316900    37A      0.322683    38A      0.326034  
      39A      0.337748    40A      0.356066    41A      0.380082  
      42A      0.413064    43A      0.434407    44A      0.501304  
      45A      0.512172    46A      0.556365    47A      0.630711  
      48A      0.662222    49A      0.716557    50A      0.720544  
      51A      0.744468    52A      0.746238    53A      0.765517  
      54A      0.788039    55A      0.803557    56A      0.827267  
      57A      0.836996    58A      0.864369    59A      0.881589  
      60A      0.922675    61A      0.950964    62A      0.974223  
      63A      1.003529    64A      1.029770    65A      1.062185  
      66A      1.079264    67A      1.081713    68A      1.095318  
      69A      1.109853    70A      1.132915    71A      1.137515  
      72A      1.156145    73A      1.169701    74A      1.185516  
      75A      1.216550    76A      1.229224    77A      1.245589  
      78A      1.255917    79A      1.271448    80A      1.335634  
      81A      1.352979    82A      1.393428    83A      1.486364  
      84A      1.523483    85A      1.566403    86A      1.608594  
      87A      1.647899    88A      1.709940    89A      1.765667  
      90A      1.777013    91A      1.787107    92A      1.796989  
      93A      1.826361    94A      1.944731    95A      1.989654  
      96A      2.042434    97A      2.086473    98A      2.140380  
      99A      2.155977   100A      2.189392   101A      2.238142  
     102A      2.281082   103A      2.315235   104A      2.319664  
     105A      2.417405   106A      2.487659   107A      2.502179  
     108A      2.555245   109A      2.572494   110A      2.601253  
     111A      2.613392   112A      2.647402   113A      2.677385  
     114A      2.709826   115A      2.720566   116A      2.726575  
     117A      2.803882   118A      2.876687   119A      2.921363  
     120A      2.966746   121A      3.029072   122A      3.103189  
     123A      3.137495   124A      3.170922   125A      3.220468  
     126A      3.266899   127A      3.502239   128A      3.843032  
     129A      4.367791   130A      4.501760   131A      4.557638  
     132A      4.617512   133A      4.711570   134A      4.800150  
     135A      4.889021   136A      4.984804  

    Final Occupation by Irrep:
              A 
    DOCC [    29 ]

  Energy converged.

  @DF-RHF Final Energy:  -340.75834482763588

   => Energetics <=

    Nuclear Repulsion Energy =            349.9480237792827779
    One-Electron Energy =               -1154.2048865669344195
    Two-Electron Energy =                 463.4985179600150786
    DFT Exchange-Correlation Energy =       0.0000000000000000
    Empirical Dispersion Energy =           0.0000000000000000
    PCM Polarization Energy =               0.0000000000000000
    EFP Energy =                            0.0000000000000000
    Total Energy =                       -340.7583448276366198

    Alert: EFP and PCM quantities not currently incorporated into SCF psivars.

Properties will be evaluated at   0.000000,   0.000000,   0.000000 Bohr
  ==> Properties <==


Properties computed using the SCF density matrix

  Nuclear Dipole Moment: (a.u.)
     X:     7.8863      Y:    -0.6417      Z:     0.6899

  Electronic Dipole Moment: (a.u.)
     X:    -7.6935      Y:     0.5623      Z:    -0.7191

  Dipole Moment: (a.u.)
     X:     0.1928      Y:    -0.0794      Z:    -0.0292     Total:     0.2105

  Dipole Moment: (Debye)
     X:     0.4900      Y:    -0.2019      Z:    -0.0741     Total:     0.5351


  Saving occupied orbitals to File 180.

*** tstop() called on cx1-3-6-2.cx1.hpc.ic.ac.uk at Tue Jul  5 16:36:34 2016
Module time:
	user time   =      12.53 seconds =       0.21 minutes
	system time =       0.08 seconds =       0.00 minutes
	total time  =         13 seconds =       0.22 minutes
Total time:
	user time   =      12.53 seconds =       0.21 minutes
	system time =       0.08 seconds =       0.00 minutes
	total time  =         13 seconds =       0.22 minutes


Properties will be evaluated at   0.000000,   0.000000,   0.000000 Bohr

Properties computed using the  density matrix

  Nuclear Dipole Moment: (a.u.)
     X:     7.8863      Y:    -0.6417      Z:     0.6899

  Electronic Dipole Moment: (a.u.)
     X:    -7.6935      Y:     0.5623      Z:    -0.7191

  Dipole Moment: (a.u.)
     X:     0.1928      Y:    -0.0794      Z:    -0.0292     Total:     0.2105

  Dipole Moment: (Debye)
     X:     0.4900      Y:    -0.2019      Z:    -0.0741     Total:     0.5351

  Quadrupole Moment: (Debye Ang)
    XX:   -44.6861     YY:   -49.0615     ZZ:   -49.0352
    XY:     6.6323     XZ:    -0.5549     YZ:    -1.2206

  Traceless Quadrupole Moment: (Debye Ang)
    XX:     2.9082     YY:    -1.4672     ZZ:    -1.4410
    XY:     6.6323     XZ:    -0.5549     YZ:    -1.2206

  Mulliken Charges: (a.u.)
   Center  Symbol    Alpha    Beta     Spin     Total
       1     H     0.39378  0.39378  0.00000  0.21244
       2     C     2.98990  2.98990  0.00000  0.02021
       3     N     3.75351  3.75351  0.00000 -0.50702
       4     C     2.99795  2.99795  0.00000  0.00410
       5     C     2.87445  2.87445  0.00000  0.25109
       6     H     0.39423  0.39423  0.00000  0.21153
       7     N     3.72866  3.72866  0.00000 -0.45733
       8     C     3.00101  3.00101  0.00000 -0.00202
       9     C     3.16785  3.16785  0.00000 -0.33569
      10     H     0.39502  0.39502  0.00000  0.20995
      11     C     3.24268  3.24268  0.00000 -0.48536
      12     H     0.40508  0.40508  0.00000  0.18983
      13     H     0.41465  0.41465  0.00000  0.17070
      14     H     0.41752  0.41752  0.00000  0.16497
      15     H     0.40511  0.40511  0.00000  0.18978
      16     H     0.41859  0.41859  0.00000  0.16281

   Total alpha = 29.00000, Total beta = 29.00000, Total charge = -0.00000


*** PSI4 exiting successfully. Buy a developer a beer!
