    -----------------------------------------------------------------------
          Psi4: An Open-Source Ab Initio Electronic Structure Package
                              Psi4 (no tag) Driver

                          Git: Rev {detached?}  

    J. M. Turney, A. C. Simmonett, R. M. Parrish, E. G. Hohenstein,
    F. A. Evangelista, J. T. Fermann, B. J. Mintz, L. A. Burns, J. J. Wilke,
    M. L. Abrams, N. J. Russ, M. L. Leininger, C. L. Janssen, E. T. Seidl,
    W. D. Allen, H. F. Schaefer, R. A. King, E. F. Valeev, C. D. Sherrill,
    and T. D. Crawford, WIREs Comput. Mol. Sci. 2, 556-565 (2012)
    (doi: 10.1002/wcms.93)

                         Additional Contributions by
    A. E. DePrince, M. Saitow, U. Bozkaya, A. Yu. Sokolov
    -----------------------------------------------------------------------


    Psi4 started on: Tue Jul  5 16:42:06 2016

    Process ID:  29940
    PSI4DATADIR: /export131/home/mjharvey/miniconda3/share
    Memory level set to 256.000 MB

  ==> Input File <==

--------------------------------------------------------------------------
set {
	reference rhf
	basis 6-31G*
}


set_num_threads( 1 )
memory 2 gb

molecule MOL {
0 1

O	 -1.276010	 1.052711	 -0.768302
C	 -1.204840	 0.067374	 -0.106123
C	 -2.388195	 -0.672128	 0.458071
O	 -0.067104	 -0.527208	 0.221609
H	 -2.388023	 -1.694060	 0.097175
H	 -3.300579	 -0.174919	 0.164318
H	 -2.315377	 -0.706351	 1.539059
C	 1.118504	 0.267759	 0.364043
C	 0.753184	 1.394778	 1.313756
C	 1.572436	 0.762327	 -1.000507
H	 1.885232	 -0.355279	 0.800459
H	 0.420587	 0.999644	 2.266906
H	 1.614880	 2.030704	 1.488143
H	 -0.043621	 2.002742	 0.898864
H	 2.456295	 1.383709	 -0.897102
H	 1.818517	 -0.069594	 -1.648062
H	 0.791746	 1.353550	 -1.468467

	symmetry c1
}
set optking {
	frozen_dihedral = ("
		11 8 4 2
	")
}

ee = energy('scf')
oeprop('DIPOLE', 'QUADRUPOLE', 'MULLIKEN_CHARGES')
f=open( 'psi4out.xyz', 'w' )
f.write( "17  " )
f.write( str(ee) + "\n" )
f.write( MOL.save_string_xyz() )
f.close()
--------------------------------------------------------------------------

  Memory set to   2.000 GiB by Python script.

*** tstart() called on cx1-1-3-4.cx1.hpc.ic.ac.uk
*** at Tue Jul  5 16:42:06 2016


         ---------------------------------------------------------
                                   SCF
            by Justin Turney, Rob Parrish, and Andy Simmonett
                              RHF Reference
                        1 Threads,   2000 MiB Core
         ---------------------------------------------------------

  ==> Geometry <==

    Molecular point group: c1
    Full point group: C1

    Geometry (in Angstrom), charge = 0, multiplicity = 1:

       Center              X                  Y                   Z               Mass       
    ------------   -----------------  -----------------  -----------------  -----------------
           O         -1.057303857938     0.709271911953    -0.835641646177    15.994914619560
           C         -0.986133857938    -0.276065088047    -0.173462646177    12.000000000000
           C         -2.169488857938    -1.015567088047     0.390731353823    12.000000000000
           O          0.151602142062    -0.870647088047     0.154269353823    15.994914619560
           H         -2.169316857938    -2.037499088047     0.029835353823     1.007825032070
           H         -3.081872857938    -0.518358088047     0.096978353823     1.007825032070
           H         -2.096670857938    -1.049790088047     1.471719353823     1.007825032070
           C          1.337210142062    -0.075680088047     0.296703353823    12.000000000000
           C          0.971890142062     1.051338911953     1.246416353823    12.000000000000
           C          1.791142142062     0.418887911953    -1.067846646177    12.000000000000
           H          2.103938142062    -0.698718088047     0.733119353823     1.007825032070
           H          0.639293142062     0.656204911953     2.199566353823     1.007825032070
           H          1.833586142062     1.687264911953     1.420803353823     1.007825032070
           H          0.175085142062     1.659302911953     0.831524353823     1.007825032070
           H          2.675001142062     1.040269911953    -0.964441646177     1.007825032070
           H          2.037223142062    -0.413033088047    -1.715401646177     1.007825032070
           H          1.010452142062     1.010110911953    -1.535806646177     1.007825032070

  Running in c1 symmetry.

  Rotational constants: A =      0.15216  B =      0.06486  C =      0.06069 [cm^-1]
  Rotational constants: A =   4561.73747  B =   1944.59136  C =   1819.39996 [MHz]
  Nuclear repulsion =  331.850544810093993

  Charge       = 0
  Multiplicity = 1
  Electrons    = 56
  Nalpha       = 28
  Nbeta        = 28

  ==> Algorithm <==

  SCF Algorithm Type is DF.
  DIIS enabled.
  MOM disabled.
  Fractional occupation disabled.
  Guess Type is CORE.
  Energy threshold   = 1.00e-06
  Density threshold  = 1.00e-06
  Integral threshold = 0.00e+00

  ==> Primary Basis <==

  Basis Set: 6-31G*
    Number of shells: 62
    Number of basis function: 125
    Number of Cartesian functions: 125
    Spherical Harmonics?: false
    Max angular momentum: 2

  ==> Pre-Iterations <==

   -------------------------------------------------------
    Irrep   Nso     Nmo     Nalpha   Nbeta   Ndocc  Nsocc
   -------------------------------------------------------
     A        125     125       0       0       0       0
   -------------------------------------------------------
    Total     125     125      28      28      28       0
   -------------------------------------------------------

 OEINTS: Overlap, kinetic, potential, dipole, and quadrupole integrals
         stored in file 35.

  ==> Integral Setup <==

  ==> DFJK: Density-Fitted J/K Matrices <==

    J tasked:                  Yes
    K tasked:                  Yes
    wK tasked:                  No
    OpenMP threads:              1
    Integrals threads:           1
    Memory (MB):              1430
    Algorithm:                Core
    Integral Cache:           NONE
    Schwarz Cutoff:          1E-12
    Fitting Condition:       1E-12

   => Auxiliary Basis Set <=

  Basis Set: 
    Number of shells: 258
    Number of basis function: 817
    Number of Cartesian functions: 817
    Spherical Harmonics?: false
    Max angular momentum: 3

  Minimum eigenvalue in the overlap matrix is 3.3384830178E-03.
  Using Symmetric Orthogonalization.
  SCF Guess: Core (One-Electron) Hamiltonian.

  ==> Iterations <==

                           Total Energy        Delta E     RMS |[F,P]|

   @DF-RHF iter   1:  -252.13237333342408   -2.52132e+02   7.96279e-02 
   @DF-RHF iter   2:  -264.85888201996841   -1.27265e+01   5.23547e-02 DIIS
   @DF-RHF iter   3:  -299.20505623936037   -3.43462e+01   6.20193e-02 DIIS
   @DF-RHF iter   4:  -328.50468598765008   -2.92996e+01   4.04793e-02 DIIS
   @DF-RHF iter   5:  -338.08335987505370   -9.57867e+00   2.53838e-02 DIIS
   @DF-RHF iter   6:  -343.46003543037307   -5.37668e+00   1.30118e-02 DIIS
   @DF-RHF iter   7:  -344.80916434184098   -1.34913e+00   3.01301e-03 DIIS
   @DF-RHF iter   8:  -344.88567696271082   -7.65126e-02   1.28275e-03 DIIS
   @DF-RHF iter   9:  -344.89666253369046   -1.09856e-02   5.39768e-04 DIIS
   @DF-RHF iter  10:  -344.89902224820196   -2.35971e-03   1.07065e-04 DIIS
   @DF-RHF iter  11:  -344.89919230507257   -1.70057e-04   3.61454e-05 DIIS
   @DF-RHF iter  12:  -344.89921216406788   -1.98590e-05   1.38810e-05 DIIS
   @DF-RHF iter  13:  -344.89921532287406   -3.15881e-06   4.98271e-06 DIIS
   @DF-RHF iter  14:  -344.89921586256617   -5.39692e-07   1.70990e-06 DIIS
   @DF-RHF iter  15:  -344.89921592216558   -5.95994e-08   5.29997e-07 DIIS

  ==> Post-Iterations <==

    Orbital Energies (a.u.)
    -----------------------

    Doubly Occupied:                                                      

       1A    -20.594058     2A    -20.545047     3A    -11.377542  
       4A    -11.293766     5A    -11.233053     6A    -11.213894  
       7A    -11.205112     8A     -1.466959     9A     -1.364222  
      10A     -1.074856    11A     -1.004830    12A     -0.944433  
      13A     -0.862653    14A     -0.737235    15A     -0.700860  
      16A     -0.673136    17A     -0.664224    18A     -0.612665  
      19A     -0.587981    20A     -0.579933    21A     -0.570127  
      22A     -0.553152    23A     -0.526658    24A     -0.521509  
      25A     -0.496524    26A     -0.480257    27A     -0.444013  
      28A     -0.427189  

    Virtual:                                                              

      29A      0.188556    30A      0.233826    31A      0.263887  
      32A      0.285317    33A      0.297239    34A      0.309028  
      35A      0.315410    36A      0.322676    37A      0.332899  
      38A      0.351050    39A      0.363364    40A      0.367099  
      41A      0.404565    42A      0.428495    43A      0.452706  
      44A      0.513670    45A      0.566915    46A      0.697672  
      47A      0.719751    48A      0.733864    49A      0.739959  
      50A      0.773395    51A      0.795025    52A      0.808477  
      53A      0.839286    54A      0.882622    55A      0.902396  
      56A      0.945341    57A      0.959547    58A      0.969973  
      59A      0.996898    60A      1.061581    61A      1.102483  
      62A      1.110325    63A      1.136944    64A      1.153428  
      65A      1.174804    66A      1.180100    67A      1.183327  
      68A      1.192117    69A      1.204852    70A      1.234585  
      71A      1.253072    72A      1.273969    73A      1.293680  
      74A      1.332222    75A      1.367134    76A      1.427545  
      77A      1.446286    78A      1.486664    79A      1.579854  
      80A      1.637108    81A      1.705114    82A      1.732890  
      83A      1.782438    84A      1.835878    85A      1.860338  
      86A      1.957072    87A      1.987070    88A      2.041766  
      89A      2.046958    90A      2.109210    91A      2.138028  
      92A      2.140727    93A      2.169912    94A      2.203271  
      95A      2.234074    96A      2.312161    97A      2.335599  
      98A      2.382381    99A      2.410121   100A      2.478836  
     101A      2.547200   102A      2.558007   103A      2.576459  
     104A      2.601296   105A      2.608016   106A      2.649784  
     107A      2.747638   108A      2.756031   109A      2.839230  
     110A      2.854465   111A      2.868665   112A      2.969814  
     113A      3.043388   114A      3.166754   115A      3.195853  
     116A      3.366364   117A      3.410235   118A      3.545183  
     119A      4.458461   120A      4.534487   121A      4.636939  
     122A      4.677057   123A      4.741613   124A      4.883628  
     125A      5.000345  

    Final Occupation by Irrep:
              A 
    DOCC [    28 ]

  Energy converged.

  @DF-RHF Final Energy:  -344.89921592216558

   => Energetics <=

    Nuclear Repulsion Energy =            331.8505448100939930
    One-Electron Energy =               -1127.9877563148143054
    Two-Electron Energy =                 451.2379955825543902
    DFT Exchange-Correlation Energy =       0.0000000000000000
    Empirical Dispersion Energy =           0.0000000000000000
    PCM Polarization Energy =               0.0000000000000000
    EFP Energy =                            0.0000000000000000
    Total Energy =                       -344.8992159221659222

    Alert: EFP and PCM quantities not currently incorporated into SCF psivars.

Properties will be evaluated at   0.000000,   0.000000,   0.000000 Bohr
  ==> Properties <==


Properties computed using the SCF density matrix

  Nuclear Dipole Moment: (a.u.)
     X:     2.9269      Y:     1.2515      Z:     2.4041

  Electronic Dipole Moment: (a.u.)
     X:    -2.6931      Y:    -1.6608      Z:    -1.7524

  Dipole Moment: (a.u.)
     X:     0.2337      Y:    -0.4093      Z:     0.6517     Total:     0.8043

  Dipole Moment: (Debye)
     X:     0.5941      Y:    -1.0405      Z:     1.6564     Total:     2.0443


  Saving occupied orbitals to File 180.

*** tstop() called on cx1-1-3-4.cx1.hpc.ic.ac.uk at Tue Jul  5 16:42:17 2016
Module time:
	user time   =       9.82 seconds =       0.16 minutes
	system time =       0.22 seconds =       0.00 minutes
	total time  =         11 seconds =       0.18 minutes
Total time:
	user time   =       9.82 seconds =       0.16 minutes
	system time =       0.22 seconds =       0.00 minutes
	total time  =         11 seconds =       0.18 minutes


Properties will be evaluated at   0.000000,   0.000000,   0.000000 Bohr

Properties computed using the  density matrix

  Nuclear Dipole Moment: (a.u.)
     X:     2.9269      Y:     1.2515      Z:     2.4041

  Electronic Dipole Moment: (a.u.)
     X:    -2.6931      Y:    -1.6608      Z:    -1.7524

  Dipole Moment: (a.u.)
     X:     0.2337      Y:    -0.4093      Z:     0.6517     Total:     0.8043

  Dipole Moment: (Debye)
     X:     0.5941      Y:    -1.0405      Z:     1.6564     Total:     2.0443

  Quadrupole Moment: (Debye Ang)
    XX:   -39.4034     YY:   -44.9495     ZZ:   -44.1560
    XY:     3.4968     XZ:    -1.5910     YZ:     1.7984

  Traceless Quadrupole Moment: (Debye Ang)
    XX:     3.4329     YY:    -2.1132     ZZ:    -1.3197
    XY:     3.4968     XZ:    -1.5910     YZ:     1.7984

  Mulliken Charges: (a.u.)
   Center  Symbol    Alpha    Beta     Spin     Total
       1     O     4.28200  4.28200  0.00000 -0.56399
       2     C     2.61565  2.61565  0.00000  0.76870
       3     C     3.28137  3.28137  0.00000 -0.56275
       4     O     4.31685  4.31685  0.00000 -0.63371
       5     H     0.39906  0.39906  0.00000  0.20188
       6     H     0.39830  0.39830  0.00000  0.20339
       7     H     0.40249  0.40249  0.00000  0.19502
       8     C     2.92166  2.92166  0.00000  0.15668
       9     C     3.26966  3.26966  0.00000 -0.53932
      10     C     3.25574  3.25574  0.00000 -0.51149
      11     H     0.40609  0.40609  0.00000  0.18782
      12     H     0.41568  0.41568  0.00000  0.16864
      13     H     0.41615  0.41615  0.00000  0.16771
      14     H     0.39357  0.39357  0.00000  0.21285
      15     H     0.42354  0.42354  0.00000  0.15292
      16     H     0.41588  0.41588  0.00000  0.16824
      17     H     0.38630  0.38630  0.00000  0.22740

   Total alpha = 28.00000, Total beta = 28.00000, Total charge =  0.00000


*** PSI4 exiting successfully. Buy a developer a beer!
