    -----------------------------------------------------------------------
          Psi4: An Open-Source Ab Initio Electronic Structure Package
                              Psi4 (no tag) Driver

                          Git: Rev {detached?}  

    J. M. Turney, A. C. Simmonett, R. M. Parrish, E. G. Hohenstein,
    F. A. Evangelista, J. T. Fermann, B. J. Mintz, L. A. Burns, J. J. Wilke,
    M. L. Abrams, N. J. Russ, M. L. Leininger, C. L. Janssen, E. T. Seidl,
    W. D. Allen, H. F. Schaefer, R. A. King, E. F. Valeev, C. D. Sherrill,
    and T. D. Crawford, WIREs Comput. Mol. Sci. 2, 556-565 (2012)
    (doi: 10.1002/wcms.93)

                         Additional Contributions by
    A. E. DePrince, M. Saitow, U. Bozkaya, A. Yu. Sokolov
    -----------------------------------------------------------------------


    Psi4 started on: Tue Jul  5 16:40:52 2016

    Process ID:  12641
    PSI4DATADIR: /export131/home/mjharvey/miniconda3/share
    Memory level set to 256.000 MB

  ==> Input File <==

--------------------------------------------------------------------------
set {
	reference rhf
	basis 6-31G*
}


set_num_threads( 1 )
memory 2 gb

molecule MOL {
0 1

H	 -2.153054	 -2.250733	 0.000000
O	 -2.462445	 -1.355403	 0.000000
C	 -1.434260	 -0.483044	 0.000000
C	 -0.196358	 -0.955914	 -0.422732
C	 -1.572848	 0.833148	 0.397925
H	 -0.112588	 -1.982162	 -0.727279
C	 0.893346	 -0.110003	 -0.444559
H	 -2.524269	 1.211430	 0.726947
C	 -0.463418	 1.674469	 0.370179
H	 1.846192	 -0.483015	 -0.772454
C	 0.773713	 1.214862	 -0.048691
C	 -0.616587	 3.050125	 0.788041
H	 1.619483	 1.875166	 -0.064589
N	 -0.739468	 4.130713	 1.116878

	symmetry c1
}
set optking {
	frozen_dihedral = ("
		14 12 9 5
	")
}

ee = energy('scf')
oeprop('DIPOLE', 'QUADRUPOLE', 'MULLIKEN_CHARGES')
f=open( 'psi4out.xyz', 'w' )
f.write( "14  " )
f.write( str(ee) + "\n" )
f.write( MOL.save_string_xyz() )
f.close()
--------------------------------------------------------------------------

  Memory set to   2.000 GiB by Python script.

*** tstart() called on cx1-3-4-4.cx1.hpc.ic.ac.uk
*** at Tue Jul  5 16:40:52 2016


         ---------------------------------------------------------
                                   SCF
            by Justin Turney, Rob Parrish, and Andy Simmonett
                              RHF Reference
                        1 Threads,   2000 MiB Core
         ---------------------------------------------------------

  ==> Geometry <==

    Molecular point group: c1
    Full point group: C1

    Geometry (in Angstrom), charge = 0, multiplicity = 1:

       Center              X                  Y                   Z               Mass       
    ------------   -----------------  -----------------  -----------------  -----------------
           H         -1.460219956687    -3.067325187483    -0.188829795073     1.007825032070
           O         -1.769610956687    -2.171995187483    -0.188829795073    15.994914619560
           C         -0.741425956687    -1.299636187483    -0.188829795073    12.000000000000
           C          0.496476043313    -1.772506187483    -0.611561795073    12.000000000000
           C         -0.880013956687     0.016555812517     0.209095204927    12.000000000000
           H          0.580246043313    -2.798754187483    -0.916108795073     1.007825032070
           C          1.586180043313    -0.926595187483    -0.633388795073    12.000000000000
           H         -1.831434956687     0.394837812517     0.538117204927     1.007825032070
           C          0.229416043313     0.857876812517     0.181349204927    12.000000000000
           H          2.539026043313    -1.299607187483    -0.961283795073     1.007825032070
           C          1.466547043313     0.398269812517    -0.237520795073    12.000000000000
           C          0.076247043313     2.233532812517     0.599211204927    12.000000000000
           H          2.312317043313     1.058573812517    -0.253418795073     1.007825032070
           N         -0.046633956687     3.314120812517     0.928048204927    14.003074004780

  Running in c1 symmetry.

  Rotational constants: A =      0.11873  B =      0.04009  C =      0.02998 [cm^-1]
  Rotational constants: A =   3559.38907  B =   1201.96605  C =    898.82108 [MHz]
  Nuclear repulsion =  379.318998889305647

  Charge       = 0
  Multiplicity = 1
  Electrons    = 62
  Nalpha       = 31
  Nbeta        = 31

  ==> Algorithm <==

  SCF Algorithm Type is DF.
  DIIS enabled.
  MOM disabled.
  Fractional occupation disabled.
  Guess Type is CORE.
  Energy threshold   = 1.00e-06
  Density threshold  = 1.00e-06
  Integral threshold = 0.00e+00

  ==> Primary Basis <==

  Basis Set: 6-31G*
    Number of shells: 64
    Number of basis function: 145
    Number of Cartesian functions: 145
    Spherical Harmonics?: false
    Max angular momentum: 2

  ==> Pre-Iterations <==

   -------------------------------------------------------
    Irrep   Nso     Nmo     Nalpha   Nbeta   Ndocc  Nsocc
   -------------------------------------------------------
     A        145     145       0       0       0       0
   -------------------------------------------------------
    Total     145     145      31      31      31       0
   -------------------------------------------------------

 OEINTS: Overlap, kinetic, potential, dipole, and quadrupole integrals
         stored in file 35.

  ==> Integral Setup <==

  ==> DFJK: Density-Fitted J/K Matrices <==

    J tasked:                  Yes
    K tasked:                  Yes
    wK tasked:                  No
    OpenMP threads:              1
    Integrals threads:           1
    Memory (MB):              1430
    Algorithm:                Core
    Integral Cache:           NONE
    Schwarz Cutoff:          1E-12
    Fitting Condition:       1E-12

   => Auxiliary Basis Set <=

  Basis Set: 
    Number of shells: 261
    Number of basis function: 854
    Number of Cartesian functions: 854
    Spherical Harmonics?: false
    Max angular momentum: 3

  Minimum eigenvalue in the overlap matrix is 4.1938059391E-04.
  Using Symmetric Orthogonalization.
  SCF Guess: Core (One-Electron) Hamiltonian.

  ==> Iterations <==

                           Total Energy        Delta E     RMS |[F,P]|

   @DF-RHF iter   1:  -309.48530132563207   -3.09485e+02   6.50131e-02 
   @DF-RHF iter   2:  -146.67595278448943    1.62809e+02   7.87466e-02 DIIS
   @DF-RHF iter   3:  -317.84058882912262   -1.71165e+02   5.27727e-02 DIIS
   @DF-RHF iter   4:  -342.42140559002138   -2.45808e+01   5.29104e-02 DIIS
   @DF-RHF iter   5:  -396.01156919875081   -5.35902e+01   1.03461e-02 DIIS
   @DF-RHF iter   6:  -397.09600811325964   -1.08444e+00   4.26619e-03 DIIS
   @DF-RHF iter   7:  -397.27187819704869   -1.75870e-01   1.12298e-03 DIIS
   @DF-RHF iter   8:  -397.28570871390860   -1.38305e-02   4.31753e-04 DIIS
   @DF-RHF iter   9:  -397.28820042137107   -2.49171e-03   1.33131e-04 DIIS
   @DF-RHF iter  10:  -397.28855879403892   -3.58373e-04   5.83734e-05 DIIS
   @DF-RHF iter  11:  -397.28865812920395   -9.93352e-05   2.94196e-05 DIIS
   @DF-RHF iter  12:  -397.28870534135552   -4.72122e-05   1.31159e-05 DIIS
   @DF-RHF iter  13:  -397.28871413589076   -8.79454e-06   6.84739e-06 DIIS
   @DF-RHF iter  14:  -397.28871715230486   -3.01641e-06   2.07378e-06 DIIS
   @DF-RHF iter  15:  -397.28871737849869   -2.26194e-07   6.40692e-07 DIIS

  ==> Post-Iterations <==

    Orbital Energies (a.u.)
    -----------------------

    Doubly Occupied:                                                      

       1A    -20.609923     2A    -15.574738     3A    -11.326157  
       4A    -11.294745     5A    -11.275861     6A    -11.264585  
       7A    -11.261361     8A    -11.259980     9A    -11.258337  
      10A     -1.432178    11A     -1.232371    12A     -1.182428  
      13A     -1.063268    14A     -1.039780    15A     -0.898137  
      16A     -0.859315    17A     -0.793327    18A     -0.717441  
      19A     -0.690851    20A     -0.677031    21A     -0.629684  
      22A     -0.616990    23A     -0.587386    24A     -0.566595  
      25A     -0.547067    26A     -0.538803    27A     -0.520074  
      28A     -0.473778    29A     -0.471935    30A     -0.363453  
      31A     -0.338512  

    Virtual:                                                              

      32A      0.085569    33A      0.131909    34A      0.201729  
      35A      0.220385    36A      0.225108    37A      0.274029  
      38A      0.280440    39A      0.290829    40A      0.329623  
      41A      0.368926    42A      0.378516    43A      0.438698  
      44A      0.453349    45A      0.468781    46A      0.485471  
      47A      0.571828    48A      0.599242    49A      0.633228  
      50A      0.700922    51A      0.713829    52A      0.717272  
      53A      0.757913    54A      0.783019    55A      0.793467  
      56A      0.803101    57A      0.804069    58A      0.827282  
      59A      0.852885    60A      0.857417    61A      0.871072  
      62A      0.885880    63A      0.888454    64A      0.937352  
      65A      0.955022    66A      0.996532    67A      0.999416  
      68A      1.064713    69A      1.090462    70A      1.101920  
      71A      1.104157    72A      1.120861    73A      1.126703  
      74A      1.136710    75A      1.166913    76A      1.185355  
      77A      1.216769    78A      1.238458    79A      1.262655  
      80A      1.332776    81A      1.375865    82A      1.390849  
      83A      1.437079    84A      1.447716    85A      1.465516  
      86A      1.517780    87A      1.534118    88A      1.588796  
      89A      1.603794    90A      1.643070    91A      1.687144  
      92A      1.706219    93A      1.731696    94A      1.733934  
      95A      1.799919    96A      1.806787    97A      1.844071  
      98A      1.967084    99A      2.037067   100A      2.062818  
     101A      2.082307   102A      2.108118   103A      2.115042  
     104A      2.155820   105A      2.227288   106A      2.242054  
     107A      2.261365   108A      2.285001   109A      2.292446  
     110A      2.296368   111A      2.330082   112A      2.388901  
     113A      2.425096   114A      2.440211   115A      2.458823  
     116A      2.536266   117A      2.574138   118A      2.609835  
     119A      2.622585   120A      2.757792   121A      2.829456  
     122A      2.843961   123A      2.866846   124A      2.924341  
     125A      2.995230   126A      3.010007   127A      3.022345  
     128A      3.097354   129A      3.139357   130A      3.168908  
     131A      3.208678   132A      3.281770   133A      3.381048  
     134A      3.563091   135A      3.674373   136A      3.870212  
     137A      4.342027   138A      4.465554   139A      4.506398  
     140A      4.559787   141A      4.613352   142A      4.720736  
     143A      4.828452   144A      4.970432   145A      5.257535  

    Final Occupation by Irrep:
              A 
    DOCC [    31 ]

  Energy converged.

  @DF-RHF Final Energy:  -397.28871737849869

   => Energetics <=

    Nuclear Repulsion Energy =            379.3189988893056466
    One-Electron Energy =               -1290.4831037955821103
    Two-Electron Energy =                 513.8753875277770931
    DFT Exchange-Correlation Energy =       0.0000000000000000
    Empirical Dispersion Energy =           0.0000000000000000
    PCM Polarization Energy =               0.0000000000000000
    EFP Energy =                            0.0000000000000000
    Total Energy =                       -397.2887173784993138

    Alert: EFP and PCM quantities not currently incorporated into SCF psivars.

Properties will be evaluated at   0.000000,   0.000000,   0.000000 Bohr
  ==> Properties <==


Properties computed using the SCF density matrix

  Nuclear Dipole Moment: (a.u.)
     X:     1.9978      Y:    -5.3751      Z:    -1.6737

  Electronic Dipole Moment: (a.u.)
     X:    -1.3375      Y:     3.2293      Z:     1.1539

  Dipole Moment: (a.u.)
     X:     0.6603      Y:    -2.1458      Z:    -0.5198     Total:     2.3045

  Dipole Moment: (Debye)
     X:     1.6783      Y:    -5.4542      Z:    -1.3212     Total:     5.8575


  Saving occupied orbitals to File 180.

*** tstop() called on cx1-3-4-4.cx1.hpc.ic.ac.uk at Tue Jul  5 16:41:09 2016
Module time:
	user time   =      15.90 seconds =       0.26 minutes
	system time =       0.09 seconds =       0.00 minutes
	total time  =         17 seconds =       0.28 minutes
Total time:
	user time   =      15.90 seconds =       0.26 minutes
	system time =       0.09 seconds =       0.00 minutes
	total time  =         17 seconds =       0.28 minutes


Properties will be evaluated at   0.000000,   0.000000,   0.000000 Bohr

Properties computed using the  density matrix

  Nuclear Dipole Moment: (a.u.)
     X:     1.9978      Y:    -5.3751      Z:    -1.6737

  Electronic Dipole Moment: (a.u.)
     X:    -1.3375      Y:     3.2293      Z:     1.1539

  Dipole Moment: (a.u.)
     X:     0.6603      Y:    -2.1458      Z:    -0.5198     Total:     2.3045

  Dipole Moment: (Debye)
     X:     1.6783      Y:    -5.4542      Z:    -1.3212     Total:     5.8575

  Quadrupole Moment: (Debye Ang)
    XX:   -49.2250     YY:   -56.4320     ZZ:   -54.4408
    XY:    -0.2952     XZ:    -2.1324     YZ:    -2.6643

  Traceless Quadrupole Moment: (Debye Ang)
    XX:     4.1410     YY:    -3.0661     ZZ:    -1.0749
    XY:    -0.2952     XZ:    -2.1324     YZ:    -2.6643

  Mulliken Charges: (a.u.)
   Center  Symbol    Alpha    Beta     Spin     Total
       1     H     0.26719  0.26719  0.00000  0.46562
       2     O     4.37943  4.37943  0.00000 -0.75885
       3     C     2.78563  2.78563  0.00000  0.42875
       4     C     3.13674  3.13674  0.00000 -0.27347
       5     C     3.11522  3.11522  0.00000 -0.23043
       6     H     0.39575  0.39575  0.00000  0.20850
       7     C     3.09533  3.09533  0.00000 -0.19066
       8     H     0.37405  0.37405  0.00000  0.25190
       9     C     2.99147  2.99147  0.00000  0.01706
      10     H     0.38943  0.38943  0.00000  0.22114
      11     C     3.09890  3.09890  0.00000 -0.19781
      12     C     2.86531  2.86531  0.00000  0.26937
      13     H     0.38111  0.38111  0.00000  0.23777
      14     N     3.72445  3.72445  0.00000 -0.44889

   Total alpha = 31.00000, Total beta = 31.00000, Total charge =  0.00000


*** PSI4 exiting successfully. Buy a developer a beer!
