    -----------------------------------------------------------------------
          Psi4: An Open-Source Ab Initio Electronic Structure Package
                              Psi4 (no tag) Driver

                          Git: Rev {detached?}  

    J. M. Turney, A. C. Simmonett, R. M. Parrish, E. G. Hohenstein,
    F. A. Evangelista, J. T. Fermann, B. J. Mintz, L. A. Burns, J. J. Wilke,
    M. L. Abrams, N. J. Russ, M. L. Leininger, C. L. Janssen, E. T. Seidl,
    W. D. Allen, H. F. Schaefer, R. A. King, E. F. Valeev, C. D. Sherrill,
    and T. D. Crawford, WIREs Comput. Mol. Sci. 2, 556-565 (2012)
    (doi: 10.1002/wcms.93)

                         Additional Contributions by
    A. E. DePrince, M. Saitow, U. Bozkaya, A. Yu. Sokolov
    -----------------------------------------------------------------------


    Psi4 started on: Tue Jul  5 16:30:57 2016

    Process ID:  25753
    PSI4DATADIR: /export131/home/mjharvey/miniconda3/share
    Memory level set to 256.000 MB

  ==> Input File <==

--------------------------------------------------------------------------
set {
	reference rhf
	basis 6-31G*
}


set_num_threads( 1 )
memory 2 gb

molecule MOL {
0 1

H	 2.761360	 0.348683	 -0.797551
N	 2.332695	 -0.069570	 0.000000
C	 0.936681	 -0.007078	 0.000000
H	 2.701778	 -0.982330	 0.159443
C	 0.227108	 -0.002120	 -1.198267
C	 0.227108	 -0.002120	 1.198267
H	 0.761569	 -0.014657	 -2.132680
C	 -1.156334	 0.010459	 -1.192360
H	 0.761569	 -0.014657	 2.132680
C	 -1.156334	 0.010459	 1.192360
H	 -1.684791	 0.014915	 -2.129421
C	 -1.862085	 0.017996	 0.000000
H	 -1.684791	 0.014915	 2.129421
H	 -2.936703	 0.028387	 0.000000

	symmetry c1
}
ee = energy('scf')
oeprop('DIPOLE', 'QUADRUPOLE', 'MULLIKEN_CHARGES')
f=open( 'psi4out.xyz', 'w' )
f.write( "14  " )
f.write( str(ee) + "\n" )
f.write( MOL.save_string_xyz() )
f.close()
--------------------------------------------------------------------------

  Memory set to   2.000 GiB by Python script.

*** tstart() called on cx1-1-2-1.cx1.hpc.ic.ac.uk
*** at Tue Jul  5 16:30:57 2016


         ---------------------------------------------------------
                                   SCF
            by Justin Turney, Rob Parrish, and Andy Simmonett
                              RHF Reference
                        1 Threads,   2000 MiB Core
         ---------------------------------------------------------

  ==> Geometry <==

    Molecular point group: c1
    Full point group: C1

    Geometry (in Angstrom), charge = 0, multiplicity = 1:

       Center              X                  Y                   Z               Mass       
    ------------   -----------------  -----------------  -----------------  -----------------
           H          2.761962413805     0.362142563165    -0.790640231904     1.007825032070
           N          2.333297413805    -0.056110436835     0.006910768096    14.003074004780
           C          0.937283413805     0.006381563165     0.006910768096    12.000000000000
           H          2.702380413805    -0.968870436835     0.166353768096     1.007825032070
           C          0.227710413805     0.011339563165    -1.191356231904    12.000000000000
           C          0.227710413805     0.011339563165     1.205177768096    12.000000000000
           H          0.762171413805    -0.001197436835    -2.125769231904     1.007825032070
           C         -1.155731586195     0.023918563165    -1.185449231904    12.000000000000
           H          0.762171413805    -0.001197436835     2.139590768096     1.007825032070
           C         -1.155731586195     0.023918563165     1.199270768096    12.000000000000
           H         -1.684188586195     0.028374563165    -2.122510231904     1.007825032070
           C         -1.861482586195     0.031455563165     0.006910768096    12.000000000000
           H         -1.684188586195     0.028374563165     2.136331768096     1.007825032070
           H         -2.936100586195     0.041846563165     0.006910768096     1.007825032070

  Running in c1 symmetry.

  Rotational constants: A =      0.19037  B =      0.08713  C =      0.06021 [cm^-1]
  Rotational constants: A =   5707.27904  B =   2612.20613  C =   1805.13795 [MHz]
  Nuclear repulsion =  273.013883047302500

  Charge       = 0
  Multiplicity = 1
  Electrons    = 50
  Nalpha       = 25
  Nbeta        = 25

  ==> Algorithm <==

  SCF Algorithm Type is DF.
  DIIS enabled.
  MOM disabled.
  Fractional occupation disabled.
  Guess Type is CORE.
  Energy threshold   = 1.00e-06
  Density threshold  = 1.00e-06
  Integral threshold = 0.00e+00

  ==> Primary Basis <==

  Basis Set: 6-31G*
    Number of shells: 56
    Number of basis function: 119
    Number of Cartesian functions: 119
    Spherical Harmonics?: false
    Max angular momentum: 2

  ==> Pre-Iterations <==

   -------------------------------------------------------
    Irrep   Nso     Nmo     Nalpha   Nbeta   Ndocc  Nsocc
   -------------------------------------------------------
     A        119     119       0       0       0       0
   -------------------------------------------------------
    Total     119     119      25      25      25       0
   -------------------------------------------------------

 OEINTS: Overlap, kinetic, potential, dipole, and quadrupole integrals
         stored in file 35.

  ==> Integral Setup <==

  ==> DFJK: Density-Fitted J/K Matrices <==

    J tasked:                  Yes
    K tasked:                  Yes
    wK tasked:                  No
    OpenMP threads:              1
    Integrals threads:           1
    Memory (MB):              1430
    Algorithm:                Core
    Integral Cache:           NONE
    Schwarz Cutoff:          1E-12
    Fitting Condition:       1E-12

   => Auxiliary Basis Set <=

  Basis Set: 
    Number of shells: 231
    Number of basis function: 742
    Number of Cartesian functions: 742
    Spherical Harmonics?: false
    Max angular momentum: 3

  Minimum eigenvalue in the overlap matrix is 4.2788360620E-04.
  Using Symmetric Orthogonalization.
  SCF Guess: Core (One-Electron) Hamiltonian.

  ==> Iterations <==

                           Total Energy        Delta E     RMS |[F,P]|

   @DF-RHF iter   1:  -224.86390407685673   -2.24864e+02   7.09671e-02 
   @DF-RHF iter   2:  -234.71987661553879   -9.85597e+00   5.26562e-02 DIIS
   @DF-RHF iter   3:  -267.97924586469622   -3.32594e+01   3.63779e-02 DIIS
   @DF-RHF iter   4:  -268.97428087889472   -9.95035e-01   3.74325e-02 DIIS
   @DF-RHF iter   5:  -285.02822507372838   -1.60539e+01   9.14237e-03 DIIS
   @DF-RHF iter   6:  -285.67306068393276   -6.44836e-01   2.54312e-03 DIIS
   @DF-RHF iter   7:  -285.71618606343390   -4.31254e-02   9.84955e-04 DIIS
   @DF-RHF iter   8:  -285.72346238981976   -7.27633e-03   4.14215e-04 DIIS
   @DF-RHF iter   9:  -285.72486669639801   -1.40431e-03   1.51132e-04 DIIS
   @DF-RHF iter  10:  -285.72506167796161   -1.94982e-04   2.37792e-05 DIIS
   @DF-RHF iter  11:  -285.72506988190554   -8.20394e-06   9.91037e-06 DIIS
   @DF-RHF iter  12:  -285.72507119318476   -1.31128e-06   3.98347e-06 DIIS
   @DF-RHF iter  13:  -285.72507145262517   -2.59440e-07   1.51118e-06 DIIS
   @DF-RHF iter  14:  -285.72507150764164   -5.50165e-08   7.35046e-07 DIIS

  ==> Post-Iterations <==

    Orbital Energies (a.u.)
    -----------------------

    Doubly Occupied:                                                      

       1A    -15.547012     2A    -11.262045     3A    -11.227686  
       4A    -11.226922     5A    -11.220870     6A    -11.220726  
       7A    -11.218652     8A     -1.213952     9A     -1.125081  
      10A     -1.009615    11A     -0.982974    12A     -0.824899  
      13A     -0.808061    14A     -0.702204    15A     -0.674659  
      16A     -0.649917    17A     -0.614981    18A     -0.592477  
      19A     -0.579551    20A     -0.507633    21A     -0.501008  
      22A     -0.486655    23A     -0.416381    24A     -0.329951  
      25A     -0.306806  

    Virtual:                                                              

      26A      0.150798    27A      0.156248    28A      0.237409  
      29A      0.246144    30A      0.288134    31A      0.308900  
      32A      0.319512    33A      0.341488    34A      0.348131  
      35A      0.390125    36A      0.452978    37A      0.486559  
      38A      0.500340    39A      0.539058    40A      0.560424  
      41A      0.675556    42A      0.745501    43A      0.757297  
      44A      0.762041    45A      0.787668    46A      0.823184  
      47A      0.833685    48A      0.837684    49A      0.845418  
      50A      0.848108    51A      0.853517    52A      0.888599  
      53A      0.914829    54A      0.929885    55A      0.997075  
      56A      1.019930    57A      1.027749    58A      1.114222  
      59A      1.120442    60A      1.126852    61A      1.132177  
      62A      1.143549    63A      1.190016    64A      1.196987  
      65A      1.216610    66A      1.232106    67A      1.238860  
      68A      1.282939    69A      1.311053    70A      1.359448  
      71A      1.367918    72A      1.457391    73A      1.462352  
      74A      1.517065    75A      1.597734    76A      1.684209  
      77A      1.718764    78A      1.740418    79A      1.752261  
      80A      1.780362    81A      1.781239    82A      1.803862  
      83A      2.082505    84A      2.102160    85A      2.146970  
      86A      2.186744    87A      2.218153    88A      2.244318  
      89A      2.299533    90A      2.330883    91A      2.409608  
      92A      2.423921    93A      2.450930    94A      2.472813  
      95A      2.500784    96A      2.546651    97A      2.594085  
      98A      2.651861    99A      2.663439   100A      2.719255  
     101A      2.825163   102A      2.890451   103A      2.923174  
     104A      2.963824   105A      3.033404   106A      3.101051  
     107A      3.108606   108A      3.118891   109A      3.208686  
     110A      3.252465   111A      3.483198   112A      3.842093  
     113A      4.277004   114A      4.531977   115A      4.552518  
     116A      4.566734   117A      4.766407   118A      4.794836  
     119A      5.139940  

    Final Occupation by Irrep:
              A 
    DOCC [    25 ]

  Energy converged.

  @DF-RHF Final Energy:  -285.72507150764164

   => Energetics <=

    Nuclear Repulsion Energy =            273.0138830473024996
    One-Electron Energy =                -926.9764728593227119
    Two-Electron Energy =                 368.2375183043787956
    DFT Exchange-Correlation Energy =       0.0000000000000000
    Empirical Dispersion Energy =           0.0000000000000000
    PCM Polarization Energy =               0.0000000000000000
    EFP Energy =                            0.0000000000000000
    Total Energy =                       -285.7250715076414735

    Alert: EFP and PCM quantities not currently incorporated into SCF psivars.

Properties will be evaluated at   0.000000,   0.000000,   0.000000 Bohr
  ==> Properties <==


Properties computed using the SCF density matrix

  Nuclear Dipole Moment: (a.u.)
     X:     0.6346      Y:    -0.4784      Z:    -0.5529

  Electronic Dipole Moment: (a.u.)
     X:    -0.5039      Y:     0.1479      Z:     0.1766

  Dipole Moment: (a.u.)
     X:     0.1308      Y:    -0.3306      Z:    -0.3762     Total:     0.5176

  Dipole Moment: (Debye)
     X:     0.3324      Y:    -0.8402      Z:    -0.9563     Total:     1.3157


  Saving occupied orbitals to File 180.

*** tstop() called on cx1-1-2-1.cx1.hpc.ic.ac.uk at Tue Jul  5 16:31:05 2016
Module time:
	user time   =       7.92 seconds =       0.13 minutes
	system time =       0.04 seconds =       0.00 minutes
	total time  =          8 seconds =       0.13 minutes
Total time:
	user time   =       7.92 seconds =       0.13 minutes
	system time =       0.04 seconds =       0.00 minutes
	total time  =          8 seconds =       0.13 minutes


Properties will be evaluated at   0.000000,   0.000000,   0.000000 Bohr

Properties computed using the  density matrix

  Nuclear Dipole Moment: (a.u.)
     X:     0.6346      Y:    -0.4784      Z:    -0.5529

  Electronic Dipole Moment: (a.u.)
     X:    -0.5039      Y:     0.1479      Z:     0.1766

  Dipole Moment: (a.u.)
     X:     0.1308      Y:    -0.3306      Z:    -0.3762     Total:     0.5176

  Dipole Moment: (Debye)
     X:     0.3324      Y:    -0.8402      Z:    -0.9563     Total:     1.3157

  Quadrupole Moment: (Debye Ang)
    XX:   -36.6911     YY:   -44.2325     ZZ:   -37.3441
    XY:    -2.5660     XZ:    -3.2979     YZ:    -1.0950

  Traceless Quadrupole Moment: (Debye Ang)
    XX:     2.7314     YY:    -4.8099     ZZ:     2.0785
    XY:    -2.5660     XZ:    -3.2979     YZ:    -1.0950

  Mulliken Charges: (a.u.)
   Center  Symbol    Alpha    Beta     Spin     Total
       1     H     0.32227  0.32227  0.00000  0.35546
       2     N     3.95320  3.95320  0.00000 -0.90640
       3     C     2.87614  2.87614  0.00000  0.24771
       4     H     0.31877  0.31877  0.00000  0.36247
       5     C     3.11708  3.11708  0.00000 -0.23415
       6     C     3.10833  3.10833  0.00000 -0.21666
       7     H     0.40435  0.40435  0.00000  0.19129
       8     C     3.09655  3.09655  0.00000 -0.19309
       9     H     0.39648  0.39648  0.00000  0.20703
      10     C     3.09693  3.09693  0.00000 -0.19386
      11     H     0.40161  0.40161  0.00000  0.19678
      12     C     3.10672  3.10672  0.00000 -0.21343
      13     H     0.40077  0.40077  0.00000  0.19846
      14     H     0.40080  0.40080  0.00000  0.19840

   Total alpha = 25.00000, Total beta = 25.00000, Total charge = -0.00000


*** PSI4 exiting successfully. Buy a developer a beer!
