    -----------------------------------------------------------------------
          Psi4: An Open-Source Ab Initio Electronic Structure Package
                              Psi4 (no tag) Driver

                          Git: Rev {detached?}  

    J. M. Turney, A. C. Simmonett, R. M. Parrish, E. G. Hohenstein,
    F. A. Evangelista, J. T. Fermann, B. J. Mintz, L. A. Burns, J. J. Wilke,
    M. L. Abrams, N. J. Russ, M. L. Leininger, C. L. Janssen, E. T. Seidl,
    W. D. Allen, H. F. Schaefer, R. A. King, E. F. Valeev, C. D. Sherrill,
    and T. D. Crawford, WIREs Comput. Mol. Sci. 2, 556-565 (2012)
    (doi: 10.1002/wcms.93)

                         Additional Contributions by
    A. E. DePrince, M. Saitow, U. Bozkaya, A. Yu. Sokolov
    -----------------------------------------------------------------------


    Psi4 started on: Tue Jul  5 16:24:30 2016

    Process ID:   9586
    PSI4DATADIR: /export131/home/mjharvey/miniconda3/share
    Memory level set to 256.000 MB

  ==> Input File <==

--------------------------------------------------------------------------
set {
	reference rhf
	basis 6-31G*
}


set_num_threads( 1 )
memory 2 gb

molecule MOL {
0 1

H	 -1.070890	 -1.366565	 0.180696
O	 -1.422729	 -0.573567	 -0.196946
C	 -0.731407	 0.539437	 0.309156
C	 0.680193	 0.672443	 -0.251532
H	 -1.319765	 1.404033	 0.030086
H	 -0.700012	 0.506517	 1.397677
C	 1.433551	 -0.655281	 -0.336990
H	 0.619522	 1.122485	 -1.238157
H	 1.233966	 1.363627	 0.380244
H	 0.945302	 -1.345158	 -1.018810
H	 2.444567	 -0.506954	 -0.701425
H	 1.501962	 -1.134237	 0.636758

	symmetry c1
}
set optking {
	frozen_dihedral = ("
		1 2 3 4
	")
}

ee = energy('scf')
oeprop('DIPOLE', 'QUADRUPOLE', 'MULLIKEN_CHARGES')
f=open( 'psi4out.xyz', 'w' )
f.write( "12  " )
f.write( str(ee) + "\n" )
f.write( MOL.save_string_xyz() )
f.close()
--------------------------------------------------------------------------

  Memory set to   2.000 GiB by Python script.

*** tstart() called on cx1-1-3-4.cx1.hpc.ic.ac.uk
*** at Tue Jul  5 16:24:31 2016


         ---------------------------------------------------------
                                   SCF
            by Justin Turney, Rob Parrish, and Andy Simmonett
                              RHF Reference
                        1 Threads,   2000 MiB Core
         ---------------------------------------------------------

  ==> Geometry <==

    Molecular point group: c1
    Full point group: C1

    Geometry (in Angstrom), charge = 0, multiplicity = 1:

       Center              X                  Y                   Z               Mass       
    ------------   -----------------  -----------------  -----------------  -----------------
           H         -1.029510746833    -1.325756170844     0.294554568150     1.007825032070
           O         -1.381349746833    -0.532758170844    -0.083087431850    15.994914619560
           C         -0.690027746833     0.580245829156     0.423014568150    12.000000000000
           C          0.721572253167     0.713251829156    -0.137673431850    12.000000000000
           H         -1.278385746833     1.444841829156     0.143944568150     1.007825032070
           H         -0.658632746833     0.547325829156     1.511535568150     1.007825032070
           C          1.474930253167    -0.614472170844    -0.223131431850    12.000000000000
           H          0.660901253167     1.163293829156    -1.124298431850     1.007825032070
           H          1.275345253167     1.404435829156     0.494102568150     1.007825032070
           H          0.986681253167    -1.304349170844    -0.904951431850     1.007825032070
           H          2.485946253167    -0.466145170844    -0.587566431850     1.007825032070
           H          1.543341253167    -1.093428170844     0.750616568150     1.007825032070

  Running in c1 symmetry.

  Rotational constants: A =      0.45065  B =      0.18477  C =      0.14596 [cm^-1]
  Rotational constants: A =  13510.13772  B =   5539.37562  C =   4375.87171 [MHz]
  Nuclear repulsion =  133.803763515440380

  Charge       = 0
  Multiplicity = 1
  Electrons    = 34
  Nalpha       = 17
  Nbeta        = 17

  ==> Algorithm <==

  SCF Algorithm Type is DF.
  DIIS enabled.
  MOM disabled.
  Fractional occupation disabled.
  Guess Type is CORE.
  Energy threshold   = 1.00e-06
  Density threshold  = 1.00e-06
  Integral threshold = 0.00e+00

  ==> Primary Basis <==

  Basis Set: 6-31G*
    Number of shells: 40
    Number of basis function: 76
    Number of Cartesian functions: 76
    Spherical Harmonics?: false
    Max angular momentum: 2

  ==> Pre-Iterations <==

   -------------------------------------------------------
    Irrep   Nso     Nmo     Nalpha   Nbeta   Ndocc  Nsocc
   -------------------------------------------------------
     A         76      76       0       0       0       0
   -------------------------------------------------------
    Total      76      76      17      17      17       0
   -------------------------------------------------------

 OEINTS: Overlap, kinetic, potential, dipole, and quadrupole integrals
         stored in file 35.

  ==> Integral Setup <==

  ==> DFJK: Density-Fitted J/K Matrices <==

    J tasked:                  Yes
    K tasked:                  Yes
    wK tasked:                  No
    OpenMP threads:              1
    Integrals threads:           1
    Memory (MB):              1430
    Algorithm:                Core
    Integral Cache:           NONE
    Schwarz Cutoff:          1E-12
    Fitting Condition:       1E-12

   => Auxiliary Basis Set <=

  Basis Set: 
    Number of shells: 168
    Number of basis function: 524
    Number of Cartesian functions: 524
    Spherical Harmonics?: false
    Max angular momentum: 3

  Minimum eigenvalue in the overlap matrix is 4.8366114582E-03.
  Using Symmetric Orthogonalization.
  SCF Guess: Core (One-Electron) Hamiltonian.

  ==> Iterations <==

                           Total Energy        Delta E     RMS |[F,P]|

   @DF-RHF iter   1:  -155.93486478475921   -1.55935e+02   8.74120e-02 
   @DF-RHF iter   2:  -126.80285084151114    2.91320e+01   8.57881e-02 DIIS
   @DF-RHF iter   3:  -170.67034283938358   -4.38675e+01   5.04596e-02 DIIS
   @DF-RHF iter   4:  -168.65672072127052    2.01362e+00   6.42670e-02 DIIS
   @DF-RHF iter   5:  -192.89070705412115   -2.42340e+01   8.62817e-03 DIIS
   @DF-RHF iter   6:  -193.05827193006729   -1.67565e-01   4.67643e-03 DIIS
   @DF-RHF iter   7:  -193.10114356089093   -4.28716e-02   1.31023e-03 DIIS
   @DF-RHF iter   8:  -193.10676938813361   -5.62583e-03   4.88409e-04 DIIS
   @DF-RHF iter   9:  -193.10775545699835   -9.86069e-04   1.06853e-04 DIIS
   @DF-RHF iter  10:  -193.10780721842968   -5.17614e-05   3.63829e-05 DIIS
   @DF-RHF iter  11:  -193.10781308018409   -5.86175e-06   8.00909e-06 DIIS
   @DF-RHF iter  12:  -193.10781331650816   -2.36324e-07   2.52547e-06 DIIS
   @DF-RHF iter  13:  -193.10781335346468   -3.69565e-08   4.62014e-07 DIIS

  ==> Post-Iterations <==

    Orbital Energies (a.u.)
    -----------------------

    Doubly Occupied:                                                      

       1A    -20.552894     2A    -11.267771     3A    -11.218365  
       4A    -11.216049     5A     -1.360310     6A     -1.049466  
       7A     -0.928960     8A     -0.806633     9A     -0.696273  
      10A     -0.634488    11A     -0.610889    12A     -0.585101  
      13A     -0.529050    14A     -0.511809    15A     -0.497040  
      16A     -0.464734    17A     -0.429632  

    Virtual:                                                              

      18A      0.215959    19A      0.264069    20A      0.285990  
      21A      0.297411    22A      0.316301    23A      0.320806  
      24A      0.339865    25A      0.363413    26A      0.383430  
      27A      0.436422    28A      0.457081    29A      0.728527  
      30A      0.731193    31A      0.768049    32A      0.800542  
      33A      0.817380    34A      0.907670    35A      0.914117  
      36A      0.965929    37A      1.039162    38A      1.087001  
      39A      1.139901    40A      1.147306    41A      1.157514  
      42A      1.181742    43A      1.190469    44A      1.209406  
      45A      1.234539    46A      1.247734    47A      1.316257  
      48A      1.349868    49A      1.445178    50A      1.582498  
      51A      1.694533    52A      1.707048    53A      1.816359  
      54A      1.882323    55A      1.963013    56A      2.035322  
      57A      2.075498    58A      2.181868    59A      2.287725  
      60A      2.310386    61A      2.389292    62A      2.457856  
      63A      2.516583    64A      2.612114    65A      2.649235  
      66A      2.702820    67A      2.721794    68A      2.773909  
      69A      2.880167    70A      3.000009    71A      3.052172  
      72A      3.211990    73A      4.173065    74A      4.590607  
      75A      4.727414    76A      4.911820  

    Final Occupation by Irrep:
              A 
    DOCC [    17 ]

  Energy converged.

  @DF-RHF Final Energy:  -193.10781335346468

   => Energetics <=

    Nuclear Repulsion Energy =            133.8037635154403802
    One-Electron Energy =                -527.1041854838540530
    Two-Electron Energy =                 200.1926086149490516
    DFT Exchange-Correlation Energy =       0.0000000000000000
    Empirical Dispersion Energy =           0.0000000000000000
    PCM Polarization Energy =               0.0000000000000000
    EFP Energy =                            0.0000000000000000
    Total Energy =                       -193.1078133534646213

    Alert: EFP and PCM quantities not currently incorporated into SCF psivars.

Properties will be evaluated at   0.000000,   0.000000,   0.000000 Bohr
  ==> Properties <==


Properties computed using the SCF density matrix

  Nuclear Dipole Moment: (a.u.)
     X:     3.7298      Y:     0.3445      Z:     0.5414

  Electronic Dipole Moment: (a.u.)
     X:    -3.1701      Y:    -0.3652      Z:    -0.1251

  Dipole Moment: (a.u.)
     X:     0.5597      Y:    -0.0207      Z:     0.4163     Total:     0.6978

  Dipole Moment: (Debye)
     X:     1.4226      Y:    -0.0526      Z:     1.0580     Total:     1.7737


  Saving occupied orbitals to File 180.

*** tstop() called on cx1-1-3-4.cx1.hpc.ic.ac.uk at Tue Jul  5 16:24:34 2016
Module time:
	user time   =       2.90 seconds =       0.05 minutes
	system time =       0.03 seconds =       0.00 minutes
	total time  =          3 seconds =       0.05 minutes
Total time:
	user time   =       2.90 seconds =       0.05 minutes
	system time =       0.03 seconds =       0.00 minutes
	total time  =          3 seconds =       0.05 minutes


Properties will be evaluated at   0.000000,   0.000000,   0.000000 Bohr

Properties computed using the  density matrix

  Nuclear Dipole Moment: (a.u.)
     X:     3.7298      Y:     0.3445      Z:     0.5414

  Electronic Dipole Moment: (a.u.)
     X:    -3.1701      Y:    -0.3652      Z:    -0.1251

  Dipole Moment: (a.u.)
     X:     0.5597      Y:    -0.0207      Z:     0.4163     Total:     0.6978

  Dipole Moment: (Debye)
     X:     1.4226      Y:    -0.0526      Z:     1.0580     Total:     1.7737

  Quadrupole Moment: (Debye Ang)
    XX:   -30.3330     YY:   -23.9718     ZZ:   -26.4030
    XY:    -0.4792     XZ:    -1.2207     YZ:    -0.9484

  Traceless Quadrupole Moment: (Debye Ang)
    XX:    -3.4304     YY:     2.9308     ZZ:     0.4996
    XY:    -0.4792     XZ:    -1.2207     YZ:    -0.9484

  Mulliken Charges: (a.u.)
   Center  Symbol    Alpha    Beta     Spin     Total
       1     H     0.27941  0.27941  0.00000  0.44118
       2     O     4.37001  4.37001  0.00000 -0.74002
       3     C     2.99782  2.99782  0.00000  0.00437
       4     C     3.16074  3.16074  0.00000 -0.32147
       5     H     0.41422  0.41422  0.00000  0.17157
       6     H     0.43156  0.43156  0.00000  0.13689
       7     C     3.25362  3.25362  0.00000 -0.50725
       8     H     0.41617  0.41617  0.00000  0.16766
       9     H     0.42267  0.42267  0.00000  0.15467
      10     H     0.41312  0.41312  0.00000  0.17375
      11     H     0.41466  0.41466  0.00000  0.17067
      12     H     0.42601  0.42601  0.00000  0.14799

   Total alpha = 17.00000, Total beta = 17.00000, Total charge = -0.00000


*** PSI4 exiting successfully. Buy a developer a beer!
