    -----------------------------------------------------------------------
          Psi4: An Open-Source Ab Initio Electronic Structure Package
                              Psi4 (no tag) Driver

                          Git: Rev {detached?}  

    J. M. Turney, A. C. Simmonett, R. M. Parrish, E. G. Hohenstein,
    F. A. Evangelista, J. T. Fermann, B. J. Mintz, L. A. Burns, J. J. Wilke,
    M. L. Abrams, N. J. Russ, M. L. Leininger, C. L. Janssen, E. T. Seidl,
    W. D. Allen, H. F. Schaefer, R. A. King, E. F. Valeev, C. D. Sherrill,
    and T. D. Crawford, WIREs Comput. Mol. Sci. 2, 556-565 (2012)
    (doi: 10.1002/wcms.93)

                         Additional Contributions by
    A. E. DePrince, M. Saitow, U. Bozkaya, A. Yu. Sokolov
    -----------------------------------------------------------------------


    Psi4 started on: Tue Jul  5 16:48:01 2016

    Process ID:  13890
    PSI4DATADIR: /export131/home/mjharvey/miniconda3/share
    Memory level set to 256.000 MB

  ==> Input File <==

--------------------------------------------------------------------------
set {
	reference rhf
	basis 6-31G*
}


set_num_threads( 1 )
memory 2 gb

molecule MOL {
0 1

H	 -2.153054	 -2.250733	 0.000000
O	 -2.462445	 -1.355403	 0.000000
C	 -1.434260	 -0.483044	 0.000000
C	 -0.808913	 -0.233940	 1.217209
C	 -0.996240	 0.153543	 -1.145778
H	 -1.166443	 -0.740062	 2.094117
C	 0.249163	 0.649247	 1.280056
H	 -1.470896	 -0.030103	 -2.093159
C	 0.072986	 1.042249	 -1.065889
H	 0.726878	 0.836239	 2.224192
C	 0.703159	 1.298020	 0.140199
C	 0.525314	 1.704251	 -2.269073
H	 1.525890	 1.985476	 0.185978
N	 0.878931	 2.223226	 -3.215922

	symmetry c1
}
set optking {
	frozen_dihedral = ("
		14 12 9 5
	")
}

ee = energy('scf')
oeprop('DIPOLE', 'QUADRUPOLE', 'MULLIKEN_CHARGES')
f=open( 'psi4out.xyz', 'w' )
f.write( "14  " )
f.write( str(ee) + "\n" )
f.write( MOL.save_string_xyz() )
f.close()
--------------------------------------------------------------------------

  Memory set to   2.000 GiB by Python script.

*** tstart() called on cx1-3-4-4.cx1.hpc.ic.ac.uk
*** at Tue Jul  5 16:48:01 2016


         ---------------------------------------------------------
                                   SCF
            by Justin Turney, Rob Parrish, and Andy Simmonett
                              RHF Reference
                        1 Threads,   2000 MiB Core
         ---------------------------------------------------------

  ==> Geometry <==

    Molecular point group: c1
    Full point group: C1

    Geometry (in Angstrom), charge = 0, multiplicity = 1:

       Center              X                  Y                   Z               Mass       
    ------------   -----------------  -----------------  -----------------  -----------------
           H         -1.733841587142    -2.744827753005     0.543713708674     1.007825032070
           O         -2.043232587142    -1.849497753005     0.543713708674    15.994914619560
           C         -1.015047587142    -0.977138753005     0.543713708674    12.000000000000
           C         -0.389700587142    -0.728034753005     1.760922708674    12.000000000000
           C         -0.577027587142    -0.340551753005    -0.602064291326    12.000000000000
           H         -0.747230587142    -1.234156753005     2.637830708674     1.007825032070
           C          0.668375412858     0.155152246995     1.823769708674    12.000000000000
           H         -1.051683587142    -0.524197753005    -1.549445291326     1.007825032070
           C          0.492198412858     0.548154246995    -0.522175291326    12.000000000000
           H          1.146090412858     0.342144246995     2.767905708674     1.007825032070
           C          1.122371412858     0.803925246995     0.683912708674    12.000000000000
           C          0.944526412858     1.210156246995    -1.725359291326    12.000000000000
           H          1.945102412858     1.491381246995     0.729691708674     1.007825032070
           N          1.298143412858     1.729131246995    -2.672208291326    14.003074004780

  Running in c1 symmetry.

  Rotational constants: A =      0.11713  B =      0.04029  C =      0.03006 [cm^-1]
  Rotational constants: A =   3511.58879  B =   1207.83950  C =    901.05417 [MHz]
  Nuclear repulsion =  379.249308097425285

  Charge       = 0
  Multiplicity = 1
  Electrons    = 62
  Nalpha       = 31
  Nbeta        = 31

  ==> Algorithm <==

  SCF Algorithm Type is DF.
  DIIS enabled.
  MOM disabled.
  Fractional occupation disabled.
  Guess Type is CORE.
  Energy threshold   = 1.00e-06
  Density threshold  = 1.00e-06
  Integral threshold = 0.00e+00

  ==> Primary Basis <==

  Basis Set: 6-31G*
    Number of shells: 64
    Number of basis function: 145
    Number of Cartesian functions: 145
    Spherical Harmonics?: false
    Max angular momentum: 2

  ==> Pre-Iterations <==

   -------------------------------------------------------
    Irrep   Nso     Nmo     Nalpha   Nbeta   Ndocc  Nsocc
   -------------------------------------------------------
     A        145     145       0       0       0       0
   -------------------------------------------------------
    Total     145     145      31      31      31       0
   -------------------------------------------------------

 OEINTS: Overlap, kinetic, potential, dipole, and quadrupole integrals
         stored in file 35.

  ==> Integral Setup <==

  ==> DFJK: Density-Fitted J/K Matrices <==

    J tasked:                  Yes
    K tasked:                  Yes
    wK tasked:                  No
    OpenMP threads:              1
    Integrals threads:           1
    Memory (MB):              1430
    Algorithm:                Core
    Integral Cache:           NONE
    Schwarz Cutoff:          1E-12
    Fitting Condition:       1E-12

   => Auxiliary Basis Set <=

  Basis Set: 
    Number of shells: 261
    Number of basis function: 854
    Number of Cartesian functions: 854
    Spherical Harmonics?: false
    Max angular momentum: 3

  Minimum eigenvalue in the overlap matrix is 4.1490559738E-04.
  Using Symmetric Orthogonalization.
  SCF Guess: Core (One-Electron) Hamiltonian.

  ==> Iterations <==

                           Total Energy        Delta E     RMS |[F,P]|

   @DF-RHF iter   1:  -309.96973156601240   -3.09970e+02   6.48204e-02 
   @DF-RHF iter   2:  -147.80173578378123    1.62168e+02   7.72566e-02 DIIS
   @DF-RHF iter   3:  -317.13187753576909   -1.69330e+02   5.06569e-02 DIIS
   @DF-RHF iter   4:  -322.98943511304941   -5.85756e+00   5.54989e-02 DIIS
   @DF-RHF iter   5:  -392.30868654694081   -6.93193e+01   1.77217e-02 DIIS
   @DF-RHF iter   6:  -389.80943744118287    2.49925e+00   2.00016e-02 DIIS
   @DF-RHF iter   7:  -397.04759100179814   -7.23815e+00   5.05689e-03 DIIS
   @DF-RHF iter   8:  -397.22480315673369   -1.77212e-01   1.95634e-03 DIIS
   @DF-RHF iter   9:  -397.26962399326595   -4.48208e-02   1.04051e-03 DIIS
   @DF-RHF iter  10:  -397.28394148908143   -1.43175e-02   3.55034e-04 DIIS
   @DF-RHF iter  11:  -397.28631999223165   -2.37850e-03   1.08105e-04 DIIS
   @DF-RHF iter  12:  -397.28653841258239   -2.18420e-04   3.95263e-05 DIIS
   @DF-RHF iter  13:  -397.28658132009269   -4.29075e-05   1.97388e-05 DIIS
   @DF-RHF iter  14:  -397.28659660122247   -1.52811e-05   1.00308e-05 DIIS
   @DF-RHF iter  15:  -397.28660119772707   -4.59650e-06   6.22746e-06 DIIS
   @DF-RHF iter  16:  -397.28660300137216   -1.80365e-06   2.25861e-06 DIIS
   @DF-RHF iter  17:  -397.28660321674755   -2.15375e-07   9.27500e-07 DIIS

  ==> Post-Iterations <==

    Orbital Energies (a.u.)
    -----------------------

    Doubly Occupied:                                                      

       1A    -20.598782     2A    -15.574271     3A    -11.316912  
       4A    -11.292615     5A    -11.275709     6A    -11.264702  
       7A    -11.263533     8A    -11.261027     9A    -11.256418  
      10A     -1.423504    11A     -1.232274    12A     -1.181707  
      13A     -1.062021    14A     -1.038119    15A     -0.891442  
      16A     -0.861664    17A     -0.784651    18A     -0.711488  
      19A     -0.694940    20A     -0.683383    21A     -0.633344  
      22A     -0.620985    23A     -0.566404    24A     -0.558743  
      25A     -0.547385    26A     -0.544053    27A     -0.493765  
      28A     -0.478313    29A     -0.471489    30A     -0.361820  
      31A     -0.349861  

    Virtual:                                                              

      32A      0.086793    33A      0.124494    34A      0.211051  
      35A      0.219787    36A      0.224081    37A      0.274245  
      38A      0.278518    39A      0.292385    40A      0.324201  
      41A      0.366202    42A      0.377428    43A      0.437584  
      44A      0.454399    45A      0.469281    46A      0.484984  
      47A      0.577624    48A      0.606668    49A      0.640643  
      50A      0.706847    51A      0.713183    52A      0.717830  
      53A      0.760987    54A      0.785774    55A      0.795190  
      56A      0.804222    57A      0.805335    58A      0.824004  
      59A      0.853051    60A      0.863952    61A      0.871917  
      62A      0.890587    63A      0.901440    64A      0.938543  
      65A      0.954669    66A      0.986515    67A      1.019220  
      68A      1.064761    69A      1.078745    70A      1.094088  
      71A      1.104427    72A      1.113727    73A      1.126151  
      74A      1.138767    75A      1.162792    76A      1.187089  
      77A      1.208088    78A      1.255602    79A      1.279605  
      80A      1.338621    81A      1.376521    82A      1.393710  
      83A      1.405362    84A      1.442816    85A      1.466710  
      86A      1.467283    87A      1.524016    88A      1.592779  
      89A      1.599874    90A      1.686064    91A      1.694867  
      92A      1.720111    93A      1.735332    94A      1.756540  
      95A      1.799697    96A      1.810968    97A      1.842083  
      98A      1.948134    99A      2.018838   100A      2.061403  
     101A      2.080064   102A      2.101902   103A      2.110372  
     104A      2.172474   105A      2.238942   106A      2.246159  
     107A      2.254298   108A      2.283054   109A      2.293076  
     110A      2.297276   111A      2.331393   112A      2.389330  
     113A      2.438789   114A      2.441812   115A      2.449367  
     116A      2.530141   117A      2.599594   118A      2.615467  
     119A      2.625649   120A      2.716598   121A      2.832626  
     122A      2.852837   123A      2.891617   124A      2.911114  
     125A      2.994903   126A      3.003878   127A      3.036673  
     128A      3.099084   129A      3.145147   130A      3.169075  
     131A      3.207751   132A      3.302524   133A      3.383826  
     134A      3.566925   135A      3.674796   136A      3.869170  
     137A      4.310110   138A      4.465296   139A      4.508091  
     140A      4.560343   141A      4.613037   142A      4.720447  
     143A      4.829503   144A      4.971926   145A      5.258294  

    Final Occupation by Irrep:
              A 
    DOCC [    31 ]

  Energy converged.

  @DF-RHF Final Energy:  -397.28660321674755

   => Energetics <=

    Nuclear Repulsion Energy =            379.2493080974252848
    One-Electron Energy =               -1290.4812386730675371
    Two-Electron Energy =                 513.9453273588954971
    DFT Exchange-Correlation Energy =       0.0000000000000000
    Empirical Dispersion Energy =           0.0000000000000000
    PCM Polarization Energy =               0.0000000000000000
    EFP Energy =                            0.0000000000000000
    Total Energy =                       -397.2866032167468120

    Alert: EFP and PCM quantities not currently incorporated into SCF psivars.

Properties will be evaluated at   0.000000,   0.000000,   0.000000 Bohr
  ==> Properties <==


Properties computed using the SCF density matrix

  Nuclear Dipole Moment: (a.u.)
     X:    -0.4275      Y:    -2.5166      Z:     4.8193

  Electronic Dipole Moment: (a.u.)
     X:     0.3931      Y:     1.2742      Z:    -3.2564

  Dipole Moment: (a.u.)
     X:    -0.0344      Y:    -1.2424      Z:     1.5629     Total:     1.9969

  Dipole Moment: (Debye)
     X:    -0.0874      Y:    -3.1579      Z:     3.9725     Total:     5.0755


  Saving occupied orbitals to File 180.

*** tstop() called on cx1-3-4-4.cx1.hpc.ic.ac.uk at Tue Jul  5 16:48:16 2016
Module time:
	user time   =      14.73 seconds =       0.25 minutes
	system time =       0.08 seconds =       0.00 minutes
	total time  =         15 seconds =       0.25 minutes
Total time:
	user time   =      14.73 seconds =       0.25 minutes
	system time =       0.08 seconds =       0.00 minutes
	total time  =         15 seconds =       0.25 minutes


Properties will be evaluated at   0.000000,   0.000000,   0.000000 Bohr

Properties computed using the  density matrix

  Nuclear Dipole Moment: (a.u.)
     X:    -0.4275      Y:    -2.5166      Z:     4.8193

  Electronic Dipole Moment: (a.u.)
     X:     0.3931      Y:     1.2742      Z:    -3.2564

  Dipole Moment: (a.u.)
     X:    -0.0344      Y:    -1.2424      Z:     1.5629     Total:     1.9969

  Dipole Moment: (Debye)
     X:    -0.0874      Y:    -3.1579      Z:     3.9725     Total:     5.0755

  Quadrupole Moment: (Debye Ang)
    XX:   -56.4108     YY:   -48.3691     ZZ:   -56.6451
    XY:     0.0284     XZ:     7.5833     YZ:     5.9025

  Traceless Quadrupole Moment: (Debye Ang)
    XX:    -2.6025     YY:     5.4392     ZZ:    -2.8368
    XY:     0.0284     XZ:     7.5833     YZ:     5.9025

  Mulliken Charges: (a.u.)
   Center  Symbol    Alpha    Beta     Spin     Total
       1     H     0.26679  0.26679  0.00000  0.46641
       2     O     4.38443  4.38443  0.00000 -0.76886
       3     C     2.81405  2.81405  0.00000  0.37189
       4     C     3.11194  3.11194  0.00000 -0.22388
       5     C     3.10934  3.10934  0.00000 -0.21867
       6     H     0.38711  0.38711  0.00000  0.22579
       7     C     3.10095  3.10095  0.00000 -0.20191
       8     H     0.37554  0.37554  0.00000  0.24892
       9     C     2.99735  2.99735  0.00000  0.00529
      10     H     0.38978  0.38978  0.00000  0.22045
      11     C     3.09180  3.09180  0.00000 -0.18360
      12     C     2.86586  2.86586  0.00000  0.26828
      13     H     0.37992  0.37992  0.00000  0.24017
      14     N     3.72514  3.72514  0.00000 -0.45027

   Total alpha = 31.00000, Total beta = 31.00000, Total charge = -0.00000


*** PSI4 exiting successfully. Buy a developer a beer!
