    -----------------------------------------------------------------------
          Psi4: An Open-Source Ab Initio Electronic Structure Package
                              Psi4 (no tag) Driver

                          Git: Rev {detached?}  

    J. M. Turney, A. C. Simmonett, R. M. Parrish, E. G. Hohenstein,
    F. A. Evangelista, J. T. Fermann, B. J. Mintz, L. A. Burns, J. J. Wilke,
    M. L. Abrams, N. J. Russ, M. L. Leininger, C. L. Janssen, E. T. Seidl,
    W. D. Allen, H. F. Schaefer, R. A. King, E. F. Valeev, C. D. Sherrill,
    and T. D. Crawford, WIREs Comput. Mol. Sci. 2, 556-565 (2012)
    (doi: 10.1002/wcms.93)

                         Additional Contributions by
    A. E. DePrince, M. Saitow, U. Bozkaya, A. Yu. Sokolov
    -----------------------------------------------------------------------


    Psi4 started on: Tue Jul  5 16:37:02 2016

    Process ID:  28962
    PSI4DATADIR: /export131/home/mjharvey/miniconda3/share
    Memory level set to 256.000 MB

  ==> Input File <==

--------------------------------------------------------------------------
set {
	reference rhf
	basis 6-31G*
}


set_num_threads( 1 )
memory 2 gb

molecule MOL {
0 1

H	 0.355019	 -5.653671	 0.044357
C	 0.664084	 -4.682555	 -0.328689
C	 -0.519574	 -3.718881	 -0.401146
H	 1.437154	 -4.305486	 0.334943
H	 1.112691	 -4.832426	 -1.306716
C	 -0.127859	 -2.340084	 -0.922563
H	 -0.968865	 -3.602566	 0.580178
H	 -1.288507	 -4.141145	 -1.045991
N	 -1.268658	 -1.446027	 -0.948991
H	 0.620773	 -1.907344	 -0.264345
H	 0.345427	 -2.440900	 -1.905016
C	 -1.217365	 -0.386708	 0.039277
H	 -1.355622	 -1.044301	 -1.863373
C	 -2.452633	 0.504241	 -0.042481
H	 -1.172857	 -0.848333	 1.022069
H	 -0.315698	 0.227728	 -0.054795
C	 -3.758029	 -0.289423	 -0.010781
H	 -2.394220	 1.093569	 -0.952170
H	 -2.440793	 1.210787	 0.785871
H	 -3.816659	 -0.981993	 -0.845726
H	 -4.617837	 0.370165	 -0.069296
H	 -3.847478	 -0.867502	 0.904682

	symmetry c1
}
set optking {
	frozen_dihedral = ("
		15 12 14 18
	")
}

ee = energy('scf')
oeprop('DIPOLE', 'QUADRUPOLE', 'MULLIKEN_CHARGES')
f=open( 'psi4out.xyz', 'w' )
f.write( "22  " )
f.write( str(ee) + "\n" )
f.write( MOL.save_string_xyz() )
f.close()
--------------------------------------------------------------------------

  Memory set to   2.000 GiB by Python script.

*** tstart() called on cx1-3-1-3.cx1.hpc.ic.ac.uk
*** at Tue Jul  5 16:37:03 2016


         ---------------------------------------------------------
                                   SCF
            by Justin Turney, Rob Parrish, and Andy Simmonett
                              RHF Reference
                        1 Threads,   2000 MiB Core
         ---------------------------------------------------------

  ==> Geometry <==

    Molecular point group: c1
    Full point group: C1

    Geometry (in Angstrom), charge = 0, multiplicity = 1:

       Center              X                  Y                   Z               Mass       
    ------------   -----------------  -----------------  -----------------  -----------------
           H          1.593073874698    -3.882020471944     0.419721102772     1.007825032070
           C          1.902138874698    -2.910904471944     0.046675102772    12.000000000000
           C          0.718480874698    -1.947230471944    -0.025781897228    12.000000000000
           H          2.675208874698    -2.533835471944     0.710307102772     1.007825032070
           H          2.350745874698    -3.060775471944    -0.931351897228     1.007825032070
           C          1.110195874698    -0.568433471944    -0.547198897228    12.000000000000
           H          0.269189874698    -1.830915471944     0.955542102772     1.007825032070
           H         -0.050452125302    -2.369494471944    -0.670626897228     1.007825032070
           N         -0.030603125302     0.325623528056    -0.573626897228    14.003074004780
           H          1.858827874698    -0.135693471944     0.111019102772     1.007825032070
           H          1.583481874698    -0.669249471944    -1.529651897228     1.007825032070
           C          0.020689874698     1.384942528056     0.414641102772    12.000000000000
           H         -0.117567125302     0.727349528056    -1.488008897228     1.007825032070
           C         -1.214578125302     2.275891528056     0.332883102772    12.000000000000
           H          0.065197874698     0.923317528056     1.397433102772     1.007825032070
           H          0.922356874698     1.999378528056     0.320569102772     1.007825032070
           C         -2.519974125302     1.482227528056     0.364583102772    12.000000000000
           H         -1.156165125302     2.865219528056    -0.576805897228     1.007825032070
           H         -1.202738125302     2.982437528056     1.161235102772     1.007825032070
           H         -2.578604125302     0.789657528056    -0.470361897228     1.007825032070
           H         -3.379782125302     2.141815528056     0.306068102772     1.007825032070
           H         -2.609423125302     0.904148528056     1.280046102772     1.007825032070

  Running in c1 symmetry.

  Rotational constants: A =      0.21683  B =      0.03285  C =      0.03088 [cm^-1]
  Rotational constants: A =   6500.25543  B =    984.82321  C =    925.71887 [MHz]
  Nuclear repulsion =  321.249114390765044

  Charge       = 0
  Multiplicity = 1
  Electrons    = 58
  Nalpha       = 29
  Nbeta        = 29

  ==> Algorithm <==

  SCF Algorithm Type is DF.
  DIIS enabled.
  MOM disabled.
  Fractional occupation disabled.
  Guess Type is CORE.
  Energy threshold   = 1.00e-06
  Density threshold  = 1.00e-06
  Integral threshold = 0.00e+00

  ==> Primary Basis <==

  Basis Set: 6-31G*
    Number of shells: 72
    Number of basis function: 135
    Number of Cartesian functions: 135
    Spherical Harmonics?: false
    Max angular momentum: 2

  ==> Pre-Iterations <==

   -------------------------------------------------------
    Irrep   Nso     Nmo     Nalpha   Nbeta   Ndocc  Nsocc
   -------------------------------------------------------
     A        135     135       0       0       0       0
   -------------------------------------------------------
    Total     135     135      29      29      29       0
   -------------------------------------------------------

 OEINTS: Overlap, kinetic, potential, dipole, and quadrupole integrals
         stored in file 35.

  ==> Integral Setup <==

  ==> DFJK: Density-Fitted J/K Matrices <==

    J tasked:                  Yes
    K tasked:                  Yes
    wK tasked:                  No
    OpenMP threads:              1
    Integrals threads:           1
    Memory (MB):              1430
    Algorithm:                Core
    Integral Cache:           NONE
    Schwarz Cutoff:          1E-12
    Fitting Condition:       1E-12

   => Auxiliary Basis Set <=

  Basis Set: 
    Number of shells: 303
    Number of basis function: 942
    Number of Cartesian functions: 942
    Spherical Harmonics?: false
    Max angular momentum: 3

  Minimum eigenvalue in the overlap matrix is 3.7640607549E-03.
  Using Symmetric Orthogonalization.
  SCF Guess: Core (One-Electron) Hamiltonian.

  ==> Iterations <==

                           Total Energy        Delta E     RMS |[F,P]|

   @DF-RHF iter   1:  -198.73305262066845   -1.98733e+02   6.98385e-02 
   @DF-RHF iter   2:  -167.23003312176206    3.15030e+01   5.61643e-02 DIIS
   @DF-RHF iter   3:  -245.35914499749776   -7.81291e+01   4.54665e-02 DIIS
   @DF-RHF iter   4:  -275.92091209973239   -3.05618e+01   3.39399e-02 DIIS
   @DF-RHF iter   5:  -286.84129184294488   -1.09204e+01   1.59828e-02 DIIS
   @DF-RHF iter   6:  -290.26754455051946   -3.42625e+00   3.15126e-03 DIIS
   @DF-RHF iter   7:  -290.36784626816961   -1.00302e-01   8.37801e-04 DIIS
   @DF-RHF iter   8:  -290.37565230613734   -7.80604e-03   3.24669e-04 DIIS
   @DF-RHF iter   9:  -290.37694931537328   -1.29701e-03   8.32038e-05 DIIS
   @DF-RHF iter  10:  -290.37705189803228   -1.02583e-04   2.65379e-05 DIIS
   @DF-RHF iter  11:  -290.37706133114443   -9.43311e-06   7.65608e-06 DIIS
   @DF-RHF iter  12:  -290.37706222497184   -8.93827e-07   2.10764e-06 DIIS
   @DF-RHF iter  13:  -290.37706230565198   -8.06801e-08   6.27580e-07 DIIS

  ==> Post-Iterations <==

    Orbital Energies (a.u.)
    -----------------------

    Doubly Occupied:                                                      

       1A    -15.532937     2A    -11.239614     3A    -11.238362  
       4A    -11.213896     5A    -11.206205     6A    -11.205470  
       7A    -11.199382     8A     -1.207033     9A     -1.055321  
      10A     -1.020295    11A     -0.924149    12A     -0.877964  
      13A     -0.799433    14A     -0.790985    15A     -0.659543  
      16A     -0.634961    17A     -0.622782    18A     -0.599428  
      19A     -0.569548    20A     -0.568245    21A     -0.537846  
      22A     -0.514402    23A     -0.497927    24A     -0.491369  
      25A     -0.476714    26A     -0.471853    27A     -0.461514  
      28A     -0.452571    29A     -0.356061  

    Virtual:                                                              

      30A      0.227179    31A      0.241691    32A      0.257879  
      33A      0.279554    34A      0.290308    35A      0.304734  
      36A      0.307254    37A      0.318231    38A      0.328773  
      39A      0.332463    40A      0.343041    41A      0.350626  
      42A      0.352787    43A      0.361070    44A      0.385439  
      45A      0.416858    46A      0.422726    47A      0.426799  
      48A      0.449821    49A      0.467462    50A      0.483884  
      51A      0.726542    52A      0.736004    53A      0.738138  
      54A      0.748175    55A      0.755471    56A      0.756604  
      57A      0.775918    58A      0.801834    59A      0.850892  
      60A      0.875716    61A      0.926616    62A      0.947851  
      63A      0.961573    64A      0.969742    65A      0.987144  
      66A      1.012222    67A      1.079946    68A      1.101851  
      69A      1.109614    70A      1.132693    71A      1.146682  
      72A      1.159824    73A      1.174203    74A      1.183436  
      75A      1.187318    76A      1.197991    77A      1.206924  
      78A      1.211623    79A      1.220681    80A      1.229505  
      81A      1.249172    82A      1.250088    83A      1.261968  
      84A      1.283156    85A      1.291280    86A      1.339175  
      87A      1.443334    88A      1.485515    89A      1.603650  
      90A      1.662875    91A      1.695113    92A      1.719926  
      93A      1.731806    94A      1.839386    95A      1.866692  
      96A      1.932847    97A      1.973925    98A      1.993286  
      99A      2.102904   100A      2.125700   101A      2.193311  
     102A      2.208305   103A      2.277844   104A      2.284311  
     105A      2.294203   106A      2.324342   107A      2.343025  
     108A      2.365573   109A      2.399174   110A      2.456365  
     111A      2.506864   112A      2.535115   113A      2.574720  
     114A      2.622712   115A      2.662108   116A      2.676122  
     117A      2.697562   118A      2.704142   119A      2.747433  
     120A      2.784436   121A      2.805963   122A      2.839572  
     123A      2.924324   124A      3.003087   125A      3.050314  
     126A      3.083459   127A      3.164348   128A      3.272512  
     129A      4.398663   130A      4.605803   131A      4.620935  
     132A      4.753086   133A      4.776724   134A      4.924513  
     135A      4.950615  

    Final Occupation by Irrep:
              A 
    DOCC [    29 ]

  Energy converged.

  @DF-RHF Final Energy:  -290.37706230565198

   => Energetics <=

    Nuclear Repulsion Energy =            321.2491143907650439
    One-Electron Energy =               -1028.4008004767472357
    Two-Electron Energy =                 416.7746237803290796
    DFT Exchange-Correlation Energy =       0.0000000000000000
    Empirical Dispersion Energy =           0.0000000000000000
    PCM Polarization Energy =               0.0000000000000000
    EFP Energy =                            0.0000000000000000
    Total Energy =                       -290.3770623056531122

    Alert: EFP and PCM quantities not currently incorporated into SCF psivars.

Properties will be evaluated at   0.000000,   0.000000,   0.000000 Bohr
  ==> Properties <==


Properties computed using the SCF density matrix

  Nuclear Dipole Moment: (a.u.)
     X:     0.2095      Y:    -1.0778      Z:     0.9346

  Electronic Dipole Moment: (a.u.)
     X:     0.0976      Y:     1.3423      Z:    -1.0947

  Dipole Moment: (a.u.)
     X:     0.3070      Y:     0.2645      Z:    -0.1601     Total:     0.4357

  Dipole Moment: (Debye)
     X:     0.7804      Y:     0.6723      Z:    -0.4070     Total:     1.1075


  Saving occupied orbitals to File 180.

*** tstop() called on cx1-3-1-3.cx1.hpc.ic.ac.uk at Tue Jul  5 16:37:15 2016
Module time:
	user time   =      12.15 seconds =       0.20 minutes
	system time =       0.06 seconds =       0.00 minutes
	total time  =         12 seconds =       0.20 minutes
Total time:
	user time   =      12.15 seconds =       0.20 minutes
	system time =       0.06 seconds =       0.00 minutes
	total time  =         12 seconds =       0.20 minutes


Properties will be evaluated at   0.000000,   0.000000,   0.000000 Bohr

Properties computed using the  density matrix

  Nuclear Dipole Moment: (a.u.)
     X:     0.2095      Y:    -1.0778      Z:     0.9346

  Electronic Dipole Moment: (a.u.)
     X:     0.0976      Y:     1.3423      Z:    -1.0947

  Dipole Moment: (a.u.)
     X:     0.3070      Y:     0.2645      Z:    -0.1601     Total:     0.4357

  Dipole Moment: (Debye)
     X:     0.7804      Y:     0.6723      Z:    -0.4070     Total:     1.1075

  Quadrupole Moment: (Debye Ang)
    XX:   -49.3816     YY:   -47.5305     ZZ:   -45.2306
    XY:     0.0660     XZ:    -0.4114     YZ:    -0.4432

  Traceless Quadrupole Moment: (Debye Ang)
    XX:    -2.0007     YY:    -0.1496     ZZ:     2.1503
    XY:     0.0660     XZ:    -0.4114     YZ:    -0.4432

  Mulliken Charges: (a.u.)
   Center  Symbol    Alpha    Beta     Spin     Total
       1     H     0.41832  0.41832  0.00000  0.16337
       2     C     3.24614  3.24614  0.00000 -0.49228
       3     C     3.13998  3.13998  0.00000 -0.27995
       4     H     0.42299  0.42299  0.00000  0.15403
       5     H     0.42327  0.42327  0.00000  0.15346
       6     C     3.05943  3.05943  0.00000 -0.11885
       7     H     0.42169  0.42169  0.00000  0.15663
       8     H     0.42003  0.42003  0.00000  0.15995
       9     N     3.85324  3.85324  0.00000 -0.70647
      10     H     0.42757  0.42757  0.00000  0.14487
      11     H     0.42496  0.42496  0.00000  0.15008
      12     C     3.05612  3.05612  0.00000 -0.11224
      13     H     0.33305  0.33305  0.00000  0.33390
      14     C     3.16180  3.16180  0.00000 -0.32359
      15     H     0.42121  0.42121  0.00000  0.15758
      16     H     0.43252  0.43252  0.00000  0.13496
      17     C     3.23390  3.23390  0.00000 -0.46780
      18     H     0.42548  0.42548  0.00000  0.14904
      19     H     0.42047  0.42047  0.00000  0.15906
      20     H     0.41044  0.41044  0.00000  0.17913
      21     H     0.42443  0.42443  0.00000  0.15115
      22     H     0.42300  0.42300  0.00000  0.15400

   Total alpha = 29.00000, Total beta = 29.00000, Total charge = -0.00000


*** PSI4 exiting successfully. Buy a developer a beer!
