    -----------------------------------------------------------------------
          Psi4: An Open-Source Ab Initio Electronic Structure Package
                              Psi4 (no tag) Driver

                          Git: Rev {detached?}  

    J. M. Turney, A. C. Simmonett, R. M. Parrish, E. G. Hohenstein,
    F. A. Evangelista, J. T. Fermann, B. J. Mintz, L. A. Burns, J. J. Wilke,
    M. L. Abrams, N. J. Russ, M. L. Leininger, C. L. Janssen, E. T. Seidl,
    W. D. Allen, H. F. Schaefer, R. A. King, E. F. Valeev, C. D. Sherrill,
    and T. D. Crawford, WIREs Comput. Mol. Sci. 2, 556-565 (2012)
    (doi: 10.1002/wcms.93)

                         Additional Contributions by
    A. E. DePrince, M. Saitow, U. Bozkaya, A. Yu. Sokolov
    -----------------------------------------------------------------------


    Psi4 started on: Tue Jul  5 16:36:50 2016

    Process ID:  15125
    PSI4DATADIR: /export131/home/mjharvey/miniconda3/share
    Memory level set to 256.000 MB

  ==> Input File <==

--------------------------------------------------------------------------
set {
	reference rhf
	basis 6-31G*
}


set_num_threads( 1 )
memory 2 gb

molecule MOL {
0 1

H	 2.332609	 0.878551	 -1.051851
C	 2.357710	 0.000000	 -0.417167
C	 1.175432	 0.000000	 0.532082
H	 3.291263	 0.000000	 0.136880
H	 2.332609	 -0.878551	 -1.051851
O	 0.000000	 0.000000	 -0.221444
H	 1.206604	 0.877321	 1.177902
H	 1.206604	 -0.877321	 1.177902
C	 -1.175432	 0.000000	 0.532082
C	 -2.357595	 -0.024748	 -0.416988
H	 -1.214799	 0.886264	 1.165117
H	 -1.198493	 -0.868118	 1.190554
H	 -2.340617	 0.844705	 -1.064343
H	 -3.291145	 -0.025392	 0.137064
H	 -2.324288	 -0.912137	 -1.038871

	symmetry c1
}
ee = energy('scf')
oeprop('DIPOLE', 'QUADRUPOLE', 'MULLIKEN_CHARGES')
f=open( 'psi4out.xyz', 'w' )
f.write( "15  " )
f.write( str(ee) + "\n" )
f.write( MOL.save_string_xyz() )
f.close()
--------------------------------------------------------------------------

  Memory set to   2.000 GiB by Python script.

*** tstart() called on cx1-3-15-4.cx1.hpc.ic.ac.uk
*** at Tue Jul  5 16:36:51 2016


         ---------------------------------------------------------
                                   SCF
            by Justin Turney, Rob Parrish, and Andy Simmonett
                              RHF Reference
                        1 Threads,   2000 MiB Core
         ---------------------------------------------------------

  ==> Geometry <==

    Molecular point group: c1
    Full point group: C1

    Geometry (in Angstrom), charge = 0, multiplicity = 1:

       Center              X                  Y                   Z               Mass       
    ------------   -----------------  -----------------  -----------------  -----------------
           H          2.332585648557     0.883576279506    -1.051887787114     1.007825032070
           C          2.357686648557     0.005025279506    -0.417203787114    12.000000000000
           C          1.175408648557     0.005025279506     0.532045212886    12.000000000000
           H          3.291239648557     0.005025279506     0.136843212886     1.007825032070
           H          2.332585648557    -0.873525720494    -1.051887787114     1.007825032070
           O         -0.000023351443     0.005025279506    -0.221480787114    15.994914619560
           H          1.206580648557     0.882346279506     1.177865212886     1.007825032070
           H          1.206580648557    -0.872295720494     1.177865212886     1.007825032070
           C         -1.175455351443     0.005025279506     0.532045212886    12.000000000000
           C         -2.357618351443    -0.019722720494    -0.417024787114    12.000000000000
           H         -1.214822351443     0.891289279506     1.165080212886     1.007825032070
           H         -1.198516351443    -0.863092720494     1.190517212886     1.007825032070
           H         -2.340640351443     0.849730279506    -1.064379787114     1.007825032070
           H         -3.291168351443    -0.020366720494     0.137027212886     1.007825032070
           H         -2.324311351443    -0.907111720494    -1.038907787114     1.007825032070

  Running in c1 symmetry.

  Rotational constants: A =      0.60071  B =      0.07579  C =      0.07082 [cm^-1]
  Rotational constants: A =  18008.88332  B =   2272.17782  C =   2122.99238 [MHz]
  Nuclear repulsion =  191.109435794196884

  Charge       = 0
  Multiplicity = 1
  Electrons    = 42
  Nalpha       = 21
  Nbeta        = 21

  ==> Algorithm <==

  SCF Algorithm Type is DF.
  DIIS enabled.
  MOM disabled.
  Fractional occupation disabled.
  Guess Type is CORE.
  Energy threshold   = 1.00e-06
  Density threshold  = 1.00e-06
  Integral threshold = 0.00e+00

  ==> Primary Basis <==

  Basis Set: 6-31G*
    Number of shells: 50
    Number of basis function: 95
    Number of Cartesian functions: 95
    Spherical Harmonics?: false
    Max angular momentum: 2

  ==> Pre-Iterations <==

   -------------------------------------------------------
    Irrep   Nso     Nmo     Nalpha   Nbeta   Ndocc  Nsocc
   -------------------------------------------------------
     A         95      95       0       0       0       0
   -------------------------------------------------------
    Total      95      95      21      21      21       0
   -------------------------------------------------------

 OEINTS: Overlap, kinetic, potential, dipole, and quadrupole integrals
         stored in file 35.

  ==> Integral Setup <==

  ==> DFJK: Density-Fitted J/K Matrices <==

    J tasked:                  Yes
    K tasked:                  Yes
    wK tasked:                  No
    OpenMP threads:              1
    Integrals threads:           1
    Memory (MB):              1430
    Algorithm:                Core
    Integral Cache:           NONE
    Schwarz Cutoff:          1E-12
    Fitting Condition:       1E-12

   => Auxiliary Basis Set <=

  Basis Set: 
    Number of shells: 210
    Number of basis function: 655
    Number of Cartesian functions: 655
    Spherical Harmonics?: false
    Max angular momentum: 3

  Minimum eigenvalue in the overlap matrix is 4.7063103561E-03.
  Using Symmetric Orthogonalization.
  SCF Guess: Core (One-Electron) Hamiltonian.

  ==> Iterations <==

                           Total Energy        Delta E     RMS |[F,P]|

   @DF-RHF iter   1:  -167.42473143675602   -1.67425e+02   8.22282e-02 
   @DF-RHF iter   2:  -170.93877234532306   -3.51404e+00   5.91987e-02 DIIS
   @DF-RHF iter   3:  -199.16235540324101   -2.82236e+01   5.91458e-02 DIIS
   @DF-RHF iter   4:  -231.24119244165797   -3.20788e+01   1.39195e-02 DIIS
   @DF-RHF iter   5:  -232.03314682137045   -7.91954e-01   4.78487e-03 DIIS
   @DF-RHF iter   6:  -232.12872793086387   -9.55811e-02   1.91127e-03 DIIS
   @DF-RHF iter   7:  -232.14413420995891   -1.54063e-02   3.05371e-04 DIIS
   @DF-RHF iter   8:  -232.14466887177423   -5.34662e-04   1.26945e-04 DIIS
   @DF-RHF iter   9:  -232.14475144581854   -8.25740e-05   4.75844e-05 DIIS
   @DF-RHF iter  10:  -232.14476431190877   -1.28661e-05   1.15832e-05 DIIS
   @DF-RHF iter  11:  -232.14476509176041   -7.79852e-07   1.89730e-06 DIIS
   @DF-RHF iter  12:  -232.14476512068836   -2.89280e-08   3.24059e-07 DIIS

  ==> Post-Iterations <==

    Orbital Energies (a.u.)
    -----------------------

    Doubly Occupied:                                                      

       1A    -20.551313     2A    -11.268086     3A    -11.268065  
       4A    -11.208849     5A    -11.208848     6A     -1.377945  
       7A     -1.044057     8A     -0.982279     9A     -0.845841  
      10A     -0.826636    11A     -0.677713    12A     -0.667727  
      13A     -0.605526    14A     -0.598832    15A     -0.549196  
      16A     -0.530401    17A     -0.522831    18A     -0.492251  
      19A     -0.487648    20A     -0.464981    21A     -0.411378  

    Virtual:                                                              

      22A      0.237786    23A      0.259605    24A      0.283183  
      25A      0.298026    26A      0.313037    27A      0.327172  
      28A      0.330383    29A      0.347107    30A      0.355059  
      31A      0.357185    32A      0.365674    33A      0.390081  
      34A      0.446902    35A      0.458333    36A      0.695128  
      37A      0.749886    38A      0.759395    39A      0.760301  
      40A      0.766512    41A      0.797926    42A      0.852759  
      43A      0.873368    44A      0.925655    45A      0.958166  
      46A      0.972913    47A      1.048162    48A      1.102337  
      49A      1.105555    50A      1.164683    51A      1.170320  
      52A      1.174603    53A      1.193665    54A      1.200831  
      55A      1.203701    56A      1.215647    57A      1.250004  
      58A      1.255344    59A      1.355282    60A      1.399630  
      61A      1.444031    62A      1.543649    63A      1.699348  
      64A      1.710199    65A      1.728958    66A      1.730651  
      67A      1.757819    68A      2.008472    69A      2.046357  
      70A      2.073614    71A      2.227746    72A      2.234381  
      73A      2.270371    74A      2.279905    75A      2.373180  
      76A      2.435043    77A      2.464996    78A      2.507586  
      79A      2.533007    80A      2.604592    81A      2.612501  
      82A      2.660923    83A      2.675144    84A      2.761096  
      85A      2.838425    86A      2.888449    87A      2.940901  
      88A      3.030057    89A      3.243855    90A      3.374825  
      91A      4.385808    92A      4.614235    93A      4.620493  
      94A      4.810769    95A      4.886431  

    Final Occupation by Irrep:
              A 
    DOCC [    21 ]

  Energy converged.

  @DF-RHF Final Energy:  -232.14476512068836

   => Energetics <=

    Nuclear Repulsion Energy =            191.1094357941968838
    One-Electron Energy =                -693.3274953884557590
    Two-Electron Energy =                 270.0732944735709111
    DFT Exchange-Correlation Energy =       0.0000000000000000
    Empirical Dispersion Energy =           0.0000000000000000
    PCM Polarization Energy =               0.0000000000000000
    EFP Energy =                            0.0000000000000000
    Total Energy =                       -232.1447651206879641

    Alert: EFP and PCM quantities not currently incorporated into SCF psivars.

Properties will be evaluated at   0.000000,   0.000000,   0.000000 Bohr
  ==> Properties <==


Properties computed using the SCF density matrix

  Nuclear Dipole Moment: (a.u.)
     X:     0.0001      Y:    -0.0229      Z:     0.7284

  Electronic Dipole Moment: (a.u.)
     X:    -0.0001      Y:     0.0217      Z:    -0.2394

  Dipole Moment: (a.u.)
     X:     0.0000      Y:    -0.0012      Z:     0.4890     Total:     0.4890

  Dipole Moment: (Debye)
     X:     0.0000      Y:    -0.0031      Z:     1.2430     Total:     1.2430


  Saving occupied orbitals to File 180.

*** tstop() called on cx1-3-15-4.cx1.hpc.ic.ac.uk at Tue Jul  5 16:36:56 2016
Module time:
	user time   =       4.60 seconds =       0.08 minutes
	system time =       0.03 seconds =       0.00 minutes
	total time  =          5 seconds =       0.08 minutes
Total time:
	user time   =       4.60 seconds =       0.08 minutes
	system time =       0.03 seconds =       0.00 minutes
	total time  =          5 seconds =       0.08 minutes


Properties will be evaluated at   0.000000,   0.000000,   0.000000 Bohr

Properties computed using the  density matrix

  Nuclear Dipole Moment: (a.u.)
     X:     0.0001      Y:    -0.0229      Z:     0.7284

  Electronic Dipole Moment: (a.u.)
     X:    -0.0001      Y:     0.0217      Z:    -0.2394

  Dipole Moment: (a.u.)
     X:     0.0000      Y:    -0.0012      Z:     0.4890     Total:     0.4890

  Dipole Moment: (Debye)
     X:     0.0000      Y:    -0.0031      Z:     1.2430     Total:     1.2430

  Quadrupole Moment: (Debye Ang)
    XX:   -30.7659     YY:   -33.0363     ZZ:   -33.4560
    XY:    -0.0013     XZ:    -0.0000     YZ:     0.0020

  Traceless Quadrupole Moment: (Debye Ang)
    XX:     1.6535     YY:    -0.6169     ZZ:    -1.0366
    XY:    -0.0013     XZ:    -0.0000     YZ:     0.0020

  Mulliken Charges: (a.u.)
   Center  Symbol    Alpha    Beta     Spin     Total
       1     H     0.41341  0.41341  0.00000  0.17318
       2     C     3.24418  3.24418  0.00000 -0.48837
       3     C     2.98738  2.98738  0.00000  0.02525
       4     H     0.42254  0.42254  0.00000  0.15492
       5     H     0.41342  0.41342  0.00000  0.17315
       6     O     4.30889  4.30889  0.00000 -0.61778
       7     H     0.43234  0.43234  0.00000  0.13532
       8     H     0.43228  0.43228  0.00000  0.13544
       9     C     2.98737  2.98737  0.00000  0.02525
      10     C     3.24418  3.24418  0.00000 -0.48836
      11     H     0.43223  0.43223  0.00000  0.13553
      12     H     0.43239  0.43239  0.00000  0.13522
      13     H     0.41338  0.41338  0.00000  0.17325
      14     H     0.42254  0.42254  0.00000  0.15492
      15     H     0.41346  0.41346  0.00000  0.17308

   Total alpha = 21.00000, Total beta = 21.00000, Total charge = -0.00000


*** PSI4 exiting successfully. Buy a developer a beer!
