    -----------------------------------------------------------------------
          Psi4: An Open-Source Ab Initio Electronic Structure Package
                              Psi4 (no tag) Driver

                          Git: Rev {detached?}  

    J. M. Turney, A. C. Simmonett, R. M. Parrish, E. G. Hohenstein,
    F. A. Evangelista, J. T. Fermann, B. J. Mintz, L. A. Burns, J. J. Wilke,
    M. L. Abrams, N. J. Russ, M. L. Leininger, C. L. Janssen, E. T. Seidl,
    W. D. Allen, H. F. Schaefer, R. A. King, E. F. Valeev, C. D. Sherrill,
    and T. D. Crawford, WIREs Comput. Mol. Sci. 2, 556-565 (2012)
    (doi: 10.1002/wcms.93)

                         Additional Contributions by
    A. E. DePrince, M. Saitow, U. Bozkaya, A. Yu. Sokolov
    -----------------------------------------------------------------------


    Psi4 started on: Tue Jul  5 18:22:26 2016

    Process ID:   6538
    PSI4DATADIR: /export131/home/mjharvey/miniconda3/share
    Memory level set to 256.000 MB

  ==> Input File <==

--------------------------------------------------------------------------
set {
	reference rhf
	basis 6-31G*
}


set_num_threads( 1 )
memory 2 gb

molecule MOL {
0 1

H	 -2.584143	 0.563626	 0.731895
O	 -1.651573	 0.463735	 0.856018
C	 -1.003347	 1.677493	 0.572034
C	 -1.221693	 2.740525	 1.643022
H	 0.050294	 1.439291	 0.502938
H	 -1.313424	 2.056513	 -0.401093
C	 -1.002917	 2.238193	 3.072242
H	 -0.553471	 3.574055	 1.442838
H	 -2.238138	 3.117867	 1.543931
C	 -2.067909	 1.230686	 3.514439
H	 -1.000598	 3.085599	 3.752142
H	 -0.019414	 1.773886	 3.146281
C	 -2.368566	 0.123502	 2.497537
H	 -1.764726	 0.780163	 4.457814
H	 -2.990488	 1.769785	 3.719188
C	 -3.034785	 0.600176	 1.203932
H	 -1.433036	 -0.370730	 2.243897
H	 -2.993091	 -0.635330	 2.966557
C	 -4.465221	 1.099239	 1.418936
H	 -3.044738	 -0.216311	 0.483265
H	 -2.448898	 1.397466	 0.752969
C	 -5.411106	 0.710962	 0.283063
H	 -4.847259	 0.703375	 2.357459
H	 -4.456195	 2.181939	 1.526468
H	 -5.467273	 -0.368187	 0.171231
H	 -6.416738	 1.077069	 0.465559
H	 -5.076338	 1.123259	 -0.664726

	symmetry c1
}
set optking {
	frozen_dihedral = ("
		14 10 7 4,
		14 10 13 16,
		10 7 4 8,
		8 4 3 2,
		10 13 16 20,
		4 3 2 1
	")
}

ee = energy('scf')
oeprop('DIPOLE', 'QUADRUPOLE', 'MULLIKEN_CHARGES')
f=open( 'psi4out.xyz', 'w' )
f.write( "27  " )
f.write( str(ee) + "\n" )
f.write( MOL.save_string_xyz() )
f.close()
--------------------------------------------------------------------------

  Memory set to   2.000 GiB by Python script.

*** tstart() called on cx1-3-4-2.cx1.hpc.ic.ac.uk
*** at Tue Jul  5 18:22:26 2016


         ---------------------------------------------------------
                                   SCF
            by Justin Turney, Rob Parrish, and Andy Simmonett
                              RHF Reference
                        1 Threads,   2000 MiB Core
         ---------------------------------------------------------

  ==> Geometry <==

    Molecular point group: c1
    Full point group: C1

    Geometry (in Angstrom), charge = 0, multiplicity = 1:

       Center              X                  Y                   Z               Mass       
    ------------   -----------------  -----------------  -----------------  -----------------
           H         -0.107489107098    -0.632820200484    -0.909325517533     1.007825032070
           O          0.825080892902    -0.732711200484    -0.785202517533    15.994914619560
           C          1.473306892902     0.481046799516    -1.069186517533    12.000000000000
           C          1.254960892902     1.544078799516     0.001801482467    12.000000000000
           H          2.526947892902     0.242844799516    -1.138282517533     1.007825032070
           H          1.163229892902     0.860066799516    -2.042313517533     1.007825032070
           C          1.473736892902     1.041746799516     1.431021482467    12.000000000000
           H          1.923182892902     2.377608799516    -0.198382517533     1.007825032070
           H          0.238515892902     1.921420799516    -0.097289517533     1.007825032070
           C          0.408744892902     0.034239799516     1.873218482467    12.000000000000
           H          1.476055892902     1.889152799516     2.110921482467     1.007825032070
           H          2.457239892902     0.577439799516     1.505060482467     1.007825032070
           C          0.108087892902    -1.072944200484     0.856316482467    12.000000000000
           H          0.711927892902    -0.416283200484     2.816593482467     1.007825032070
           H         -0.513834107098     0.573338799516     2.077967482467     1.007825032070
           C         -0.558131107098    -0.596270200484    -0.437288517533    12.000000000000
           H          1.043617892902    -1.567176200484     0.602676482467     1.007825032070
           H         -0.516437107098    -1.831776200484     1.325336482467     1.007825032070
           C         -1.988567107098    -0.097207200484    -0.222284517533    12.000000000000
           H         -0.568084107098    -1.412757200484    -1.157955517533     1.007825032070
           H          0.027755892902     0.201019799516    -0.888251517533     1.007825032070
           C         -2.934452107098    -0.485484200484    -1.358157517533    12.000000000000
           H         -2.370605107098    -0.493071200484     0.716238482467     1.007825032070
           H         -1.979541107098     0.985492799516    -0.114752517533     1.007825032070
           H         -2.990619107098    -1.564633200484    -1.469989517533     1.007825032070
           H         -3.940084107098    -0.119377200484    -1.175661517533     1.007825032070
           H         -2.599684107098    -0.073187200484    -2.305946517533     1.007825032070

  Running in c1 symmetry.

  Rotational constants: A =      0.08297  B =      0.03858  C =      0.03427 [cm^-1]
  Rotational constants: A =   2487.34897  B =   1156.57530  C =   1027.26390 [MHz]
  Nuclear repulsion =  550.587611205947724

  Charge       = 0
  Multiplicity = 1
  Electrons    = 74
  Nalpha       = 37
  Nbeta        = 37

  ==> Algorithm <==

  SCF Algorithm Type is DF.
  DIIS enabled.
  MOM disabled.
  Fractional occupation disabled.
  Guess Type is CORE.
  Energy threshold   = 1.00e-06
  Density threshold  = 1.00e-06
  Integral threshold = 0.00e+00

  ==> Primary Basis <==

  Basis Set: 6-31G*
    Number of shells: 90
    Number of basis function: 171
    Number of Cartesian functions: 171
    Spherical Harmonics?: false
    Max angular momentum: 2

  ==> Pre-Iterations <==

   -------------------------------------------------------
    Irrep   Nso     Nmo     Nalpha   Nbeta   Ndocc  Nsocc
   -------------------------------------------------------
     A        171     171       0       0       0       0
   -------------------------------------------------------
    Total     171     171      37      37      37       0
   -------------------------------------------------------

 OEINTS: Overlap, kinetic, potential, dipole, and quadrupole integrals
         stored in file 35.

  ==> Integral Setup <==

  ==> DFJK: Density-Fitted J/K Matrices <==

    J tasked:                  Yes
    K tasked:                  Yes
    wK tasked:                  No
    OpenMP threads:              1
    Integrals threads:           1
    Memory (MB):              1430
    Algorithm:                Core
    Integral Cache:           NONE
    Schwarz Cutoff:          1E-12
    Fitting Condition:       1E-12

   => Auxiliary Basis Set <=

  Basis Set: 
    Number of shells: 378
    Number of basis function: 1179
    Number of Cartesian functions: 1179
    Spherical Harmonics?: false
    Max angular momentum: 3

  Minimum eigenvalue in the overlap matrix is 1.3133807752E-03.
  Using Symmetric Orthogonalization.
  SCF Guess: Core (One-Electron) Hamiltonian.

  ==> Iterations <==

                           Total Energy        Delta E     RMS |[F,P]|

   @DF-RHF iter   1:  -244.56947864102244   -2.44569e+02   7.20727e-02 
   @DF-RHF iter   2:  -135.79850423771643    1.08771e+02   6.99215e-02 DIIS
   @DF-RHF iter   3:  -297.39074111877312   -1.61592e+02   4.85740e-02 DIIS
   @DF-RHF iter   4:  -289.02105812477237    8.36968e+00   5.98519e-02 DIIS
   @DF-RHF iter   5:  -386.56927666542526   -9.75482e+01   5.87728e-03 DIIS
   @DF-RHF iter   6:  -386.97055473775742   -4.01278e-01   3.23092e-03 DIIS
   @DF-RHF iter   7:  -387.10312656772317   -1.32572e-01   5.81368e-04 DIIS
   @DF-RHF iter   8:  -387.10894481081618   -5.81824e-03   2.59080e-04 DIIS
   @DF-RHF iter   9:  -387.10996921968660   -1.02441e-03   7.54905e-05 DIIS
   @DF-RHF iter  10:  -387.11008975945003   -1.20540e-04   2.21774e-05 DIIS
   @DF-RHF iter  11:  -387.11010369518317   -1.39357e-05   7.60170e-06 DIIS
   @DF-RHF iter  12:  -387.11010552362552   -1.82844e-06   3.02889e-06 DIIS
   @DF-RHF iter  13:  -387.11010587271335   -3.49088e-07   8.28291e-07 DIIS

  ==> Post-Iterations <==

    Orbital Energies (a.u.)
    -----------------------

    Doubly Occupied:                                                      

       1A    -20.495394     2A    -11.279126     3A    -11.267477  
       4A    -11.227995     5A    -11.219211     6A    -11.210661  
       7A    -11.197864     8A    -11.192559     9A    -11.174301  
      10A     -1.641896    11A     -1.146665    12A     -1.080748  
      13A     -1.021129    14A     -1.003355    15A     -0.919061  
      16A     -0.878220    17A     -0.836001    18A     -0.784855  
      19A     -0.749946    20A     -0.671516    21A     -0.661357  
      22A     -0.635024    23A     -0.613377    24A     -0.597393  
      25A     -0.588544    26A     -0.555612    27A     -0.546618  
      28A     -0.527830    29A     -0.503792    30A     -0.491727  
      31A     -0.472126    32A     -0.465929    33A     -0.456681  
      34A     -0.448820    35A     -0.441398    36A     -0.352020  
      37A     -0.248988  

    Virtual:                                                              

      38A      0.199500    39A      0.239046    40A      0.246600  
      41A      0.257785    42A      0.275114    43A      0.287659  
      44A      0.299943    45A      0.304062    46A      0.315503  
      47A      0.319566    48A      0.333561    49A      0.341444  
      50A      0.348231    51A      0.350030    52A      0.366591  
      53A      0.370588    54A      0.383589    55A      0.407428  
      56A      0.415264    57A      0.427892    58A      0.446207  
      59A      0.457100    60A      0.469446    61A      0.488820  
      62A      0.506342    63A      0.570471    64A      0.685853  
      65A      0.718781    66A      0.726295    67A      0.732091  
      68A      0.748079    69A      0.761074    70A      0.791386  
      71A      0.808207    72A      0.853382    73A      0.870486  
      74A      0.890398    75A      0.908426    76A      0.918039  
      77A      0.932314    78A      0.959988    79A      0.979566  
      80A      1.001425    81A      1.013369    82A      1.056265  
      83A      1.083671    84A      1.100445    85A      1.113224  
      86A      1.116260    87A      1.141273    88A      1.151440  
      89A      1.152919    90A      1.166966    91A      1.171920  
      92A      1.180694    93A      1.185381    94A      1.202424  
      95A      1.219779    96A      1.224177    97A      1.243312  
      98A      1.245322    99A      1.261353   100A      1.269387  
     101A      1.276659   102A      1.302283   103A      1.322191  
     104A      1.355623   105A      1.382289   106A      1.426309  
     107A      1.494685   108A      1.558840   109A      1.623065  
     110A      1.630647   111A      1.689707   112A      1.726830  
     113A      1.759089   114A      1.780705   115A      1.814234  
     116A      1.848994   117A      1.881236   118A      1.920121  
     119A      1.936211   120A      1.953049   121A      2.041513  
     122A      2.057136   123A      2.093808   124A      2.139725  
     125A      2.173413   126A      2.196538   127A      2.233913  
     128A      2.245791   129A      2.262371   130A      2.307868  
     131A      2.310928   132A      2.340233   133A      2.370037  
     134A      2.382202   135A      2.386058   136A      2.465435  
     137A      2.474173   138A      2.532358   139A      2.567979  
     140A      2.572723   141A      2.653773   142A      2.676678  
     143A      2.684699   144A      2.702823   145A      2.730212  
     146A      2.734935   147A      2.742344   148A      2.754356  
     149A      2.791158   150A      2.800140   151A      2.812461  
     152A      2.864610   153A      2.931733   154A      3.000295  
     155A      3.011774   156A      3.026858   157A      3.076514  
     158A      3.116216   159A      3.164084   160A      3.263294  
     161A      3.547853   162A      4.543719   163A      4.588265  
     164A      4.657626   165A      4.718843   166A      4.823819  
     167A      4.864923   168A      4.965328   169A      4.994217  
     170A      5.069311   171A      5.145782  

    Final Occupation by Irrep:
              A 
    DOCC [    37 ]

  Energy converged.

  @DF-RHF Final Energy:  -387.11010587271335

   => Energetics <=

    Nuclear Repulsion Energy =            550.5876112059477236
    One-Electron Energy =               -1616.1848358444995029
    Two-Electron Energy =                 678.4871187658364988
    DFT Exchange-Correlation Energy =       0.0000000000000000
    Empirical Dispersion Energy =           0.0000000000000000
    PCM Polarization Energy =               0.0000000000000000
    EFP Energy =                            0.0000000000000000
    Total Energy =                       -387.1101058727152804

    Alert: EFP and PCM quantities not currently incorporated into SCF psivars.

Properties will be evaluated at   0.000000,   0.000000,   0.000000 Bohr
  ==> Properties <==


Properties computed using the SCF density matrix

  Nuclear Dipole Moment: (a.u.)
     X:    -3.7627      Y:     1.4189      Z:    -0.3257

  Electronic Dipole Moment: (a.u.)
     X:     4.2800      Y:    -0.9538      Z:     0.0364

  Dipole Moment: (a.u.)
     X:     0.5173      Y:     0.4651      Z:    -0.2893     Total:     0.7534

  Dipole Moment: (Debye)
     X:     1.3148      Y:     1.1822      Z:    -0.7353     Total:     1.9150


  Saving occupied orbitals to File 180.

*** tstop() called on cx1-3-4-2.cx1.hpc.ic.ac.uk at Tue Jul  5 18:22:58 2016
Module time:
	user time   =      30.59 seconds =       0.51 minutes
	system time =       0.28 seconds =       0.00 minutes
	total time  =         32 seconds =       0.53 minutes
Total time:
	user time   =      30.59 seconds =       0.51 minutes
	system time =       0.28 seconds =       0.00 minutes
	total time  =         32 seconds =       0.53 minutes


Properties will be evaluated at   0.000000,   0.000000,   0.000000 Bohr

Properties computed using the  density matrix

  Nuclear Dipole Moment: (a.u.)
     X:    -3.7627      Y:     1.4189      Z:    -0.3257

  Electronic Dipole Moment: (a.u.)
     X:     4.2800      Y:    -0.9538      Z:     0.0364

  Dipole Moment: (a.u.)
     X:     0.5173      Y:     0.4651      Z:    -0.2893     Total:     0.7534

  Dipole Moment: (Debye)
     X:     1.3148      Y:     1.1822      Z:    -0.7353     Total:     1.9150

  Quadrupole Moment: (Debye Ang)
    XX:   -61.7305     YY:   -60.5096     ZZ:   -60.2153
    XY:     2.1626     XZ:    -0.4813     YZ:    -0.0192

  Traceless Quadrupole Moment: (Debye Ang)
    XX:    -0.9121     YY:     0.3089     ZZ:     0.6032
    XY:     2.1626     XZ:    -0.4813     YZ:    -0.0192

  Mulliken Charges: (a.u.)
   Center  Symbol    Alpha    Beta     Spin     Total
       1     H     0.42512  0.42512  0.00000  0.14976
       2     O     4.28347  4.28347  0.00000 -0.56694
       3     C     3.07227  3.07227  0.00000 -0.14453
       4     C     3.19106  3.19106  0.00000 -0.38211
       5     H     0.38855  0.38855  0.00000  0.22291
       6     H     0.40893  0.40893  0.00000  0.18214
       7     C     3.15055  3.15055  0.00000 -0.30110
       8     H     0.41129  0.41129  0.00000  0.17742
       9     H     0.40430  0.40430  0.00000  0.19140
      10     C     3.15069  3.15069  0.00000 -0.30138
      11     H     0.41574  0.41574  0.00000  0.16852
      12     H     0.42273  0.42273  0.00000  0.15455
      13     C     3.16388  3.16388  0.00000 -0.32776
      14     H     0.41852  0.41852  0.00000  0.16295
      15     H     0.42058  0.42058  0.00000  0.15884
      16     C     3.09660  3.09660  0.00000 -0.19320
      17     H     0.39272  0.39272  0.00000  0.21455
      18     H     0.43832  0.43832  0.00000  0.12336
      19     C     3.16477  3.16477  0.00000 -0.32955
      20     H     0.37235  0.37235  0.00000  0.25530
      21     H     0.41974  0.41974  0.00000  0.16052
      22     C     3.24627  3.24627  0.00000 -0.49253
      23     H     0.43041  0.43041  0.00000  0.13919
      24     H     0.43407  0.43407  0.00000  0.13186
      25     H     0.42722  0.42722  0.00000  0.14556
      26     H     0.41951  0.41951  0.00000  0.16098
      27     H     0.43035  0.43035  0.00000  0.13929

   Total alpha = 37.00000, Total beta = 37.00000, Total charge = -0.00000


*** PSI4 exiting successfully. Buy a developer a beer!
