    -----------------------------------------------------------------------
          Psi4: An Open-Source Ab Initio Electronic Structure Package
                              Psi4 (no tag) Driver

                          Git: Rev {detached?}  

    J. M. Turney, A. C. Simmonett, R. M. Parrish, E. G. Hohenstein,
    F. A. Evangelista, J. T. Fermann, B. J. Mintz, L. A. Burns, J. J. Wilke,
    M. L. Abrams, N. J. Russ, M. L. Leininger, C. L. Janssen, E. T. Seidl,
    W. D. Allen, H. F. Schaefer, R. A. King, E. F. Valeev, C. D. Sherrill,
    and T. D. Crawford, WIREs Comput. Mol. Sci. 2, 556-565 (2012)
    (doi: 10.1002/wcms.93)

                         Additional Contributions by
    A. E. DePrince, M. Saitow, U. Bozkaya, A. Yu. Sokolov
    -----------------------------------------------------------------------


    Psi4 started on: Tue Jul  5 16:28:20 2016

    Process ID:  20782
    PSI4DATADIR: /export131/home/mjharvey/miniconda3/share
    Memory level set to 256.000 MB

  ==> Input File <==

--------------------------------------------------------------------------
set {
	reference rhf
	basis 6-31G*
}


set_num_threads( 1 )
memory 2 gb

molecule MOL {
0 1

H	 -2.273092	 1.173159	 0.000295
O	 -1.438904	 1.618192	 0.000114
C	 -0.409536	 0.736003	 0.000030
C	 -0.694931	 -0.552438	 0.423904
C	 0.876144	 1.090570	 -0.402771
H	 -1.699630	 -0.783412	 0.725933
C	 0.304361	 -1.506484	 0.450754
C	 1.861188	 0.111136	 -0.365539
C	 1.185536	 2.496924	 -0.864778
H	 0.076425	 -2.504333	 0.780657
C	 1.591301	 -1.179017	 0.055117
H	 2.859646	 0.369134	 -0.673539
H	 0.991917	 3.232506	 -0.086720
H	 2.229085	 2.588988	 -1.137737
H	 0.600073	 2.776105	 -1.738442
H	 2.373461	 -1.915964	 0.073430

	symmetry c1
}
ee = energy('scf')
oeprop('DIPOLE', 'QUADRUPOLE', 'MULLIKEN_CHARGES')
f=open( 'psi4out.xyz', 'w' )
f.write( "16  " )
f.write( str(ee) + "\n" )
f.write( MOL.save_string_xyz() )
f.close()
--------------------------------------------------------------------------

  Memory set to   2.000 GiB by Python script.

*** tstart() called on cx1-3-15-2.cx1.hpc.ic.ac.uk
*** at Tue Jul  5 16:28:20 2016


         ---------------------------------------------------------
                                   SCF
            by Justin Turney, Rob Parrish, and Andy Simmonett
                              RHF Reference
                        1 Threads,   2000 MiB Core
         ---------------------------------------------------------

  ==> Geometry <==

    Molecular point group: c1
    Full point group: C1

    Geometry (in Angstrom), charge = 0, multiplicity = 1:

       Center              X                  Y                   Z               Mass       
    ------------   -----------------  -----------------  -----------------  -----------------
           H         -2.631714489461     0.754696853057     0.097556026410     1.007825032070
           O         -1.797526489461     1.199729853057     0.097375026410    15.994914619560
           C         -0.768158489461     0.317540853057     0.097291026410    12.000000000000
           C         -1.053553489461    -0.970900146943     0.521165026410    12.000000000000
           C          0.517521510539     0.672107853057    -0.305509973590    12.000000000000
           H         -2.058252489461    -1.201874146943     0.823194026410     1.007825032070
           C         -0.054261489461    -1.924946146943     0.548015026410    12.000000000000
           C          1.502565510539    -0.307326146943    -0.268277973590    12.000000000000
           C          0.826913510539     2.078461853057    -0.767516973590    12.000000000000
           H         -0.282197489461    -2.922795146943     0.877918026410     1.007825032070
           C          1.232678510539    -1.597479146943     0.152378026410    12.000000000000
           H          2.501023510539    -0.049328146943    -0.576277973590     1.007825032070
           H          0.633294510539     2.814043853057     0.010541026410     1.007825032070
           H          1.870462510539     2.170525853057    -1.040475973590     1.007825032070
           H          0.241450510539     2.357642853057    -1.641180973590     1.007825032070
           H          2.014838510539    -2.334426146943     0.170691026410     1.007825032070

  Running in c1 symmetry.

  Rotational constants: A =      0.10615  B =      0.07560  C =      0.04454 [cm^-1]
  Rotational constants: A =   3182.19283  B =   2266.31058  C =   1335.13172 [MHz]
  Nuclear repulsion =  349.616846854397750

  Charge       = 0
  Multiplicity = 1
  Electrons    = 58
  Nalpha       = 29
  Nbeta        = 29

  ==> Algorithm <==

  SCF Algorithm Type is DF.
  DIIS enabled.
  MOM disabled.
  Fractional occupation disabled.
  Guess Type is CORE.
  Energy threshold   = 1.00e-06
  Density threshold  = 1.00e-06
  Integral threshold = 0.00e+00

  ==> Primary Basis <==

  Basis Set: 6-31G*
    Number of shells: 64
    Number of basis function: 136
    Number of Cartesian functions: 136
    Spherical Harmonics?: false
    Max angular momentum: 2

  ==> Pre-Iterations <==

   -------------------------------------------------------
    Irrep   Nso     Nmo     Nalpha   Nbeta   Ndocc  Nsocc
   -------------------------------------------------------
     A        136     136       0       0       0       0
   -------------------------------------------------------
    Total     136     136      29      29      29       0
   -------------------------------------------------------

 OEINTS: Overlap, kinetic, potential, dipole, and quadrupole integrals
         stored in file 35.

  ==> Integral Setup <==

  ==> DFJK: Density-Fitted J/K Matrices <==

    J tasked:                  Yes
    K tasked:                  Yes
    wK tasked:                  No
    OpenMP threads:              1
    Integrals threads:           1
    Memory (MB):              1430
    Algorithm:                Core
    Integral Cache:           NONE
    Schwarz Cutoff:          1E-12
    Fitting Condition:       1E-12

   => Auxiliary Basis Set <=

  Basis Set: 
    Number of shells: 264
    Number of basis function: 848
    Number of Cartesian functions: 848
    Spherical Harmonics?: false
    Max angular momentum: 3

  Minimum eigenvalue in the overlap matrix is 3.9783610305E-04.
  Using Symmetric Orthogonalization.
  SCF Guess: Core (One-Electron) Hamiltonian.

  ==> Iterations <==

                           Total Energy        Delta E     RMS |[F,P]|

   @DF-RHF iter   1:  -269.63628955792308   -2.69636e+02   6.76176e-02 
   @DF-RHF iter   2:  -243.55572030200517    2.60806e+01   5.43863e-02 DIIS
   @DF-RHF iter   3:  -287.77783936685671   -4.42221e+01   5.32359e-02 DIIS
   @DF-RHF iter   4:  -335.26755018676829   -4.74897e+01   2.94371e-02 DIIS
   @DF-RHF iter   5:  -343.60013245684672   -8.33258e+00   9.28266e-03 DIIS
   @DF-RHF iter   6:  -344.51463108333894   -9.14499e-01   2.71422e-03 DIIS
   @DF-RHF iter   7:  -344.58462212568338   -6.99910e-02   6.86758e-04 DIIS
   @DF-RHF iter   8:  -344.59018608168469   -5.56396e-03   3.28567e-04 DIIS
   @DF-RHF iter   9:  -344.59150765679931   -1.32158e-03   1.24486e-04 DIIS
   @DF-RHF iter  10:  -344.59179306168824   -2.85405e-04   4.06029e-05 DIIS
   @DF-RHF iter  11:  -344.59184239290494   -4.93312e-05   1.86513e-05 DIIS
   @DF-RHF iter  12:  -344.59185647781749   -1.40849e-05   9.24230e-06 DIIS
   @DF-RHF iter  13:  -344.59186119159915   -4.71378e-06   3.00348e-06 DIIS
   @DF-RHF iter  14:  -344.59186164268772   -4.51089e-07   8.88240e-07 DIIS

  ==> Post-Iterations <==

    Orbital Energies (a.u.)
    -----------------------

    Doubly Occupied:                                                      

       1A    -20.585595     2A    -11.292568     3A    -11.232909  
       4A    -11.231563     5A    -11.229834     6A    -11.224167  
       7A    -11.220226     8A    -11.215063     9A     -1.405506  
      10A     -1.148476    11A     -1.043335    12A     -1.003251  
      13A     -0.928854    14A     -0.842591    15A     -0.801629  
      16A     -0.731974    17A     -0.671607    18A     -0.652444  
      19A     -0.607449    20A     -0.594791    21A     -0.576587  
      22A     -0.558024    23A     -0.546822    24A     -0.533722  
      25A     -0.501644    26A     -0.479325    27A     -0.471419  
      28A     -0.330096    29A     -0.304813  

    Virtual:                                                              

      30A      0.147454    31A      0.162495    32A      0.223327  
      33A      0.248467    34A      0.267210    35A      0.297432  
      36A      0.324365    37A      0.328665    38A      0.330636  
      39A      0.361466    40A      0.401480    41A      0.418774  
      42A      0.452453    43A      0.490565    44A      0.522460  
      45A      0.550553    46A      0.556932    47A      0.698485  
      48A      0.723160    49A      0.733946    50A      0.742427  
      51A      0.759786    52A      0.776307    53A      0.816701  
      54A      0.834146    55A      0.837350    56A      0.848503  
      57A      0.851829    58A      0.882141    59A      0.882759  
      60A      0.919893    61A      0.941862    62A      0.963261  
      63A      1.019967    64A      1.041515    65A      1.046578  
      66A      1.111189    67A      1.118933    68A      1.128530  
      69A      1.154570    70A      1.162217    71A      1.181420  
      72A      1.208307    73A      1.221321    74A      1.227953  
      75A      1.253621    76A      1.270984    77A      1.292963  
      78A      1.331528    79A      1.360875    80A      1.371742  
      81A      1.442868    82A      1.500839    83A      1.508049  
      84A      1.538840    85A      1.613070    86A      1.640762  
      87A      1.659165    88A      1.712456    89A      1.729418  
      90A      1.744443    91A      1.769401    92A      1.787575  
      93A      1.967054    94A      2.055908    95A      2.081970  
      96A      2.106523    97A      2.140729    98A      2.161844  
      99A      2.191764   100A      2.210102   101A      2.252636  
     102A      2.311823   103A      2.314633   104A      2.333673  
     105A      2.429505   106A      2.439920   107A      2.484152  
     108A      2.525549   109A      2.574781   110A      2.611099  
     111A      2.627812   112A      2.654546   113A      2.659704  
     114A      2.675252   115A      2.697404   116A      2.816294  
     117A      2.900197   118A      2.926007   119A      2.952408  
     120A      3.038418   121A      3.069289   122A      3.106309  
     123A      3.144578   124A      3.170009   125A      3.243774  
     126A      3.356050   127A      3.542069   128A      3.840459  
     129A      4.379602   130A      4.534855   131A      4.551416  
     132A      4.614843   133A      4.719967   134A      4.830854  
     135A      4.854779   136A      5.192353  

    Final Occupation by Irrep:
              A 
    DOCC [    29 ]

  Energy converged.

  @DF-RHF Final Energy:  -344.59186164268772

   => Energetics <=

    Nuclear Repulsion Energy =            349.6168468543977497
    One-Electron Energy =               -1160.4848315486235606
    Two-Electron Energy =                 466.2761230515380930
    DFT Exchange-Correlation Energy =       0.0000000000000000
    Empirical Dispersion Energy =           0.0000000000000000
    PCM Polarization Energy =               0.0000000000000000
    EFP Energy =                            0.0000000000000000
    Total Energy =                       -344.5918616426877179

    Alert: EFP and PCM quantities not currently incorporated into SCF psivars.

Properties will be evaluated at   0.000000,   0.000000,   0.000000 Bohr
  ==> Properties <==


Properties computed using the SCF density matrix

  Nuclear Dipole Moment: (a.u.)
     X:     2.1371      Y:     1.4949      Z:    -1.1977

  Electronic Dipole Moment: (a.u.)
     X:    -2.4041      Y:    -1.8957      Z:     1.1454

  Dipole Moment: (a.u.)
     X:    -0.2670      Y:    -0.4008      Z:    -0.0522     Total:     0.4844

  Dipole Moment: (Debye)
     X:    -0.6786      Y:    -1.0187      Z:    -0.1328     Total:     1.2311


  Saving occupied orbitals to File 180.

*** tstop() called on cx1-3-15-2.cx1.hpc.ic.ac.uk at Tue Jul  5 16:28:32 2016
Module time:
	user time   =      11.47 seconds =       0.19 minutes
	system time =       0.05 seconds =       0.00 minutes
	total time  =         12 seconds =       0.20 minutes
Total time:
	user time   =      11.47 seconds =       0.19 minutes
	system time =       0.05 seconds =       0.00 minutes
	total time  =         12 seconds =       0.20 minutes


Properties will be evaluated at   0.000000,   0.000000,   0.000000 Bohr

Properties computed using the  density matrix

  Nuclear Dipole Moment: (a.u.)
     X:     2.1371      Y:     1.4949      Z:    -1.1977

  Electronic Dipole Moment: (a.u.)
     X:    -2.4041      Y:    -1.8957      Z:     1.1454

  Dipole Moment: (a.u.)
     X:    -0.2670      Y:    -0.4008      Z:    -0.0522     Total:     0.4844

  Dipole Moment: (Debye)
     X:    -0.6786      Y:    -1.0187      Z:    -0.1328     Total:     1.2311

  Quadrupole Moment: (Debye Ang)
    XX:   -38.9883     YY:   -47.0412     ZZ:   -50.1985
    XY:     2.0755     XZ:    -1.6185     YZ:    -2.0245

  Traceless Quadrupole Moment: (Debye Ang)
    XX:     6.4210     YY:    -1.6319     ZZ:    -4.7892
    XY:     2.0755     XZ:    -1.6185     YZ:    -2.0245

  Mulliken Charges: (a.u.)
   Center  Symbol    Alpha    Beta     Spin     Total
       1     H     0.26994  0.26994  0.00000  0.46011
       2     O     4.38434  4.38434  0.00000 -0.76867
       3     C     2.80001  2.80001  0.00000  0.39998
       4     C     3.14109  3.14109  0.00000 -0.28218
       5     C     3.01002  3.01002  0.00000 -0.02005
       6     H     0.40528  0.40528  0.00000  0.18944
       7     C     3.09591  3.09591  0.00000 -0.19181
       8     C     3.10617  3.10617  0.00000 -0.21234
       9     C     3.24356  3.24356  0.00000 -0.48712
      10     H     0.39990  0.39990  0.00000  0.20020
      11     C     3.10817  3.10817  0.00000 -0.21633
      12     H     0.39990  0.39990  0.00000  0.20020
      13     H     0.40826  0.40826  0.00000  0.18349
      14     H     0.41708  0.41708  0.00000  0.16584
      15     H     0.40955  0.40955  0.00000  0.18090
      16     H     0.40082  0.40082  0.00000  0.19836

   Total alpha = 29.00000, Total beta = 29.00000, Total charge =  0.00000


*** PSI4 exiting successfully. Buy a developer a beer!
