    -----------------------------------------------------------------------
          Psi4: An Open-Source Ab Initio Electronic Structure Package
                              Psi4 (no tag) Driver

                          Git: Rev {detached?}  

    J. M. Turney, A. C. Simmonett, R. M. Parrish, E. G. Hohenstein,
    F. A. Evangelista, J. T. Fermann, B. J. Mintz, L. A. Burns, J. J. Wilke,
    M. L. Abrams, N. J. Russ, M. L. Leininger, C. L. Janssen, E. T. Seidl,
    W. D. Allen, H. F. Schaefer, R. A. King, E. F. Valeev, C. D. Sherrill,
    and T. D. Crawford, WIREs Comput. Mol. Sci. 2, 556-565 (2012)
    (doi: 10.1002/wcms.93)

                         Additional Contributions by
    A. E. DePrince, M. Saitow, U. Bozkaya, A. Yu. Sokolov
    -----------------------------------------------------------------------


    Psi4 started on: Tue Jul  5 16:44:38 2016

    Process ID:   5582
    PSI4DATADIR: /export131/home/mjharvey/miniconda3/share
    Memory level set to 256.000 MB

  ==> Input File <==

--------------------------------------------------------------------------
set {
	reference rhf
	basis 6-31G*
}


set_num_threads( 1 )
memory 2 gb

molecule MOL {
0 1

O	 -1.276010	 1.052711	 -0.768302
C	 -1.204840	 0.067374	 -0.106123
C	 -2.388195	 -0.672128	 0.458071
O	 -0.067104	 -0.527208	 0.221609
H	 -2.388023	 -1.694060	 0.097175
H	 -3.300579	 -0.174919	 0.164318
H	 -2.315377	 -0.706351	 1.539059
C	 -0.046118	 -1.420791	 1.343660
C	 -1.175995	 -2.408232	 1.111441
C	 -0.201884	 -0.629947	 2.633213
H	 0.904622	 -1.933233	 1.341915
H	 -1.035157	 -2.938263	 0.176305
H	 -1.208206	 -3.135363	 1.916162
H	 -2.131327	 -1.895829	 1.073512
H	 -0.209896	 -1.302735	 3.484864
H	 0.619012	 0.064467	 2.759287
H	 -1.134556	 -0.074884	 2.627264

	symmetry c1
}
set optking {
	frozen_dihedral = ("
		11 8 4 2
	")
}

ee = energy('scf')
oeprop('DIPOLE', 'QUADRUPOLE', 'MULLIKEN_CHARGES')
f=open( 'psi4out.xyz', 'w' )
f.write( "17  " )
f.write( str(ee) + "\n" )
f.write( MOL.save_string_xyz() )
f.close()
--------------------------------------------------------------------------

  Memory set to   2.000 GiB by Python script.

*** tstart() called on cx1-1-3-4.cx1.hpc.ic.ac.uk
*** at Tue Jul  5 16:44:39 2016


         ---------------------------------------------------------
                                   SCF
            by Justin Turney, Rob Parrish, and Andy Simmonett
                              RHF Reference
                        1 Threads,   2000 MiB Core
         ---------------------------------------------------------

  ==> Geometry <==

    Molecular point group: c1
    Full point group: C1

    Geometry (in Angstrom), charge = 0, multiplicity = 1:

       Center              X                  Y                   Z               Mass       
    ------------   -----------------  -----------------  -----------------  -----------------
           O         -0.355229217833     1.701869865494    -1.472121258194    15.994914619560
           C         -0.284059217833     0.716532865494    -0.809942258194    12.000000000000
           C         -1.467414217833    -0.022969134506    -0.245748258194    12.000000000000
           O          0.853676782167     0.121950865494    -0.482210258194    15.994914619560
           H         -1.467242217833    -1.044901134506    -0.606644258194     1.007825032070
           H         -2.379798217833     0.474239865494    -0.539501258194     1.007825032070
           H         -1.394596217833    -0.057192134506     0.835239741806     1.007825032070
           C          0.874662782167    -0.771632134506     0.639840741806    12.000000000000
           C         -0.255214217833    -1.759073134506     0.407621741806    12.000000000000
           C          0.718896782167     0.019211865494     1.929393741806    12.000000000000
           H          1.825402782167    -1.284074134506     0.638095741806     1.007825032070
           H         -0.114376217833    -2.289104134506    -0.527514258194     1.007825032070
           H         -0.287425217833    -2.486204134506     1.212342741806     1.007825032070
           H         -1.210546217833    -1.246670134506     0.369692741806     1.007825032070
           H          0.710884782167    -0.653576134506     2.781044741806     1.007825032070
           H          1.539792782167     0.713625865494     2.055467741806     1.007825032070
           H         -0.213775217833     0.574274865494     1.923444741806     1.007825032070

  Running in c1 symmetry.

  Rotational constants: A =      0.14534  B =      0.07306  C =      0.06320 [cm^-1]
  Rotational constants: A =   4357.16837  B =   2190.32733  C =   1894.58772 [MHz]
  Nuclear repulsion =  339.632113092547058

  Charge       = 0
  Multiplicity = 1
  Electrons    = 56
  Nalpha       = 28
  Nbeta        = 28

  ==> Algorithm <==

  SCF Algorithm Type is DF.
  DIIS enabled.
  MOM disabled.
  Fractional occupation disabled.
  Guess Type is CORE.
  Energy threshold   = 1.00e-06
  Density threshold  = 1.00e-06
  Integral threshold = 0.00e+00

  ==> Primary Basis <==

  Basis Set: 6-31G*
    Number of shells: 62
    Number of basis function: 125
    Number of Cartesian functions: 125
    Spherical Harmonics?: false
    Max angular momentum: 2

  ==> Pre-Iterations <==

   -------------------------------------------------------
    Irrep   Nso     Nmo     Nalpha   Nbeta   Ndocc  Nsocc
   -------------------------------------------------------
     A        125     125       0       0       0       0
   -------------------------------------------------------
    Total     125     125      28      28      28       0
   -------------------------------------------------------

 OEINTS: Overlap, kinetic, potential, dipole, and quadrupole integrals
         stored in file 35.

  ==> Integral Setup <==

  ==> DFJK: Density-Fitted J/K Matrices <==

    J tasked:                  Yes
    K tasked:                  Yes
    wK tasked:                  No
    OpenMP threads:              1
    Integrals threads:           1
    Memory (MB):              1430
    Algorithm:                Core
    Integral Cache:           NONE
    Schwarz Cutoff:          1E-12
    Fitting Condition:       1E-12

   => Auxiliary Basis Set <=

  Basis Set: 
    Number of shells: 258
    Number of basis function: 817
    Number of Cartesian functions: 817
    Spherical Harmonics?: false
    Max angular momentum: 3

  Minimum eigenvalue in the overlap matrix is 2.6148660017E-03.
  Using Symmetric Orthogonalization.
  SCF Guess: Core (One-Electron) Hamiltonian.

  ==> Iterations <==

                           Total Energy        Delta E     RMS |[F,P]|

   @DF-RHF iter   1:  -264.86718377654762   -2.64867e+02   7.38696e-02 
   @DF-RHF iter   2:  -222.35721504880752    4.25100e+01   6.78601e-02 DIIS
   @DF-RHF iter   3:  -294.45459026746840   -7.20974e+01   5.18222e-02 DIIS
   @DF-RHF iter   4:  -314.28264456215646   -1.98281e+01   4.79794e-02 DIIS
   @DF-RHF iter   5:  -340.70895220489166   -2.64263e+01   2.07599e-02 DIIS
   @DF-RHF iter   6:  -344.54123903924216   -3.83229e+00   3.98403e-03 DIIS
   @DF-RHF iter   7:  -344.67183316446193   -1.30594e-01   1.72942e-03 DIIS
   @DF-RHF iter   8:  -344.69635839628421   -2.45252e-02   5.43303e-04 DIIS
   @DF-RHF iter   9:  -344.69936798399232   -3.00959e-03   2.22179e-04 DIIS
   @DF-RHF iter  10:  -344.69986683313988   -4.98849e-04   7.83726e-05 DIIS
   @DF-RHF iter  11:  -344.69994756575210   -8.07326e-05   2.32959e-05 DIIS
   @DF-RHF iter  12:  -344.69995673467173   -9.16892e-06   8.28363e-06 DIIS
   @DF-RHF iter  13:  -344.69995786240673   -1.12774e-06   4.23494e-06 DIIS
   @DF-RHF iter  14:  -344.69995808658149   -2.24175e-07   1.19456e-06 DIIS
   @DF-RHF iter  15:  -344.69995811926816   -3.26867e-08   4.51108e-07 DIIS

  ==> Post-Iterations <==

    Orbital Energies (a.u.)
    -----------------------

    Doubly Occupied:                                                      

       1A    -20.600703     2A    -20.549026     3A    -11.383985  
       4A    -11.308484     5A    -11.235531     6A    -11.232147  
       7A    -11.192568     8A     -1.468524     9A     -1.371905  
      10A     -1.122906    11A     -1.059523    12A     -0.959621  
      13A     -0.864468    14A     -0.799668    15A     -0.712755  
      16A     -0.693612    17A     -0.677730    18A     -0.655379  
      19A     -0.627679    20A     -0.592973    21A     -0.583893  
      22A     -0.560524    23A     -0.543886    24A     -0.505301  
      25A     -0.493948    26A     -0.452274    27A     -0.444551  
      28A     -0.395112  

    Virtual:                                                              

      29A      0.180720    30A      0.214587    31A      0.239160  
      32A      0.264891    33A      0.287159    34A      0.293192  
      35A      0.313390    36A      0.317410    37A      0.330640  
      38A      0.336594    39A      0.343652    40A      0.386273  
      41A      0.409314    42A      0.443870    43A      0.471881  
      44A      0.491239    45A      0.607122    46A      0.702184  
      47A      0.710501    48A      0.738546    49A      0.747944  
      50A      0.779752    51A      0.786162    52A      0.830812  
      53A      0.874384    54A      0.890969    55A      0.897370  
      56A      0.929729    57A      0.957267    58A      0.972288  
      59A      1.020407    60A      1.072712    61A      1.094493  
      62A      1.116442    63A      1.126578    64A      1.152158  
      65A      1.152466    66A      1.177039    67A      1.193210  
      68A      1.203282    69A      1.221468    70A      1.244049  
      71A      1.284012    72A      1.288738    73A      1.320744  
      74A      1.361411    75A      1.379401    76A      1.395068  
      77A      1.426318    78A      1.551392    79A      1.604818  
      80A      1.632605    81A      1.706634    82A      1.723567  
      83A      1.806633    84A      1.851222    85A      1.928253  
      86A      1.960563    87A      2.018195    88A      2.052070  
      89A      2.088570    90A      2.098078    91A      2.116238  
      92A      2.152335    93A      2.173028    94A      2.218807  
      95A      2.265871    96A      2.292875    97A      2.330704  
      98A      2.382563    99A      2.461448   100A      2.483506  
     101A      2.505805   102A      2.538886   103A      2.589920  
     104A      2.596686   105A      2.620462   106A      2.699036  
     107A      2.756222   108A      2.772551   109A      2.844388  
     110A      2.874300   111A      2.939504   112A      3.039305  
     113A      3.080705   114A      3.121874   115A      3.190358  
     116A      3.297012   117A      3.412145   118A      3.571741  
     119A      4.398915   120A      4.588856   121A      4.707135  
     122A      4.745789   123A      4.793083   124A      4.967171  
     125A      5.049950  

    Final Occupation by Irrep:
              A 
    DOCC [    28 ]

  Energy converged.

  @DF-RHF Final Energy:  -344.69995811926816

   => Energetics <=

    Nuclear Repulsion Energy =            339.6321130925470584
    One-Electron Energy =               -1142.4866926599863746
    Two-Electron Energy =                 458.1546214481721222
    DFT Exchange-Correlation Energy =       0.0000000000000000
    Empirical Dispersion Energy =           0.0000000000000000
    PCM Polarization Energy =               0.0000000000000000
    EFP Energy =                            0.0000000000000000
    Total Energy =                       -344.6999581192671371

    Alert: EFP and PCM quantities not currently incorporated into SCF psivars.

Properties will be evaluated at   0.000000,   0.000000,   0.000000 Bohr
  ==> Properties <==


Properties computed using the SCF density matrix

  Nuclear Dipole Moment: (a.u.)
     X:    -2.8022      Y:    -6.8344      Z:     7.6232

  Electronic Dipole Moment: (a.u.)
     X:     2.4419      Y:     5.5570      Z:    -6.3641

  Dipole Moment: (a.u.)
     X:    -0.3603      Y:    -1.2774      Z:     1.2591     Total:     1.8294

  Dipole Moment: (Debye)
     X:    -0.9158      Y:    -3.2468      Z:     3.2002     Total:     4.6499


  Saving occupied orbitals to File 180.

*** tstop() called on cx1-1-3-4.cx1.hpc.ic.ac.uk at Tue Jul  5 16:44:49 2016
Module time:
	user time   =      10.46 seconds =       0.17 minutes
	system time =       0.07 seconds =       0.00 minutes
	total time  =         10 seconds =       0.17 minutes
Total time:
	user time   =      10.46 seconds =       0.17 minutes
	system time =       0.07 seconds =       0.00 minutes
	total time  =         10 seconds =       0.17 minutes


Properties will be evaluated at   0.000000,   0.000000,   0.000000 Bohr

Properties computed using the  density matrix

  Nuclear Dipole Moment: (a.u.)
     X:    -2.8022      Y:    -6.8344      Z:     7.6232

  Electronic Dipole Moment: (a.u.)
     X:     2.4419      Y:     5.5570      Z:    -6.3641

  Dipole Moment: (a.u.)
     X:    -0.3603      Y:    -1.2774      Z:     1.2591     Total:     1.8294

  Dipole Moment: (Debye)
     X:    -0.9158      Y:    -3.2468      Z:     3.2002     Total:     4.6499

  Quadrupole Moment: (Debye Ang)
    XX:   -42.2290     YY:   -49.1962     ZZ:   -45.9510
    XY:     0.3205     XZ:     1.3785     YZ:     5.1433

  Traceless Quadrupole Moment: (Debye Ang)
    XX:     3.5631     YY:    -3.4042     ZZ:    -0.1589
    XY:     0.3205     XZ:     1.3785     YZ:     5.1433

  Mulliken Charges: (a.u.)
   Center  Symbol    Alpha    Beta     Spin     Total
       1     O     4.27044  4.27044  0.00000 -0.54088
       2     C     2.58344  2.58344  0.00000  0.83313
       3     C     3.36542  3.36542  0.00000 -0.73084
       4     O     4.30934  4.30934  0.00000 -0.61868
       5     H     0.37343  0.37343  0.00000  0.25315
       6     H     0.39055  0.39055  0.00000  0.21889
       7     H     0.39302  0.39302  0.00000  0.21396
       8     C     2.93846  2.93846  0.00000  0.12308
       9     C     3.30318  3.30318  0.00000 -0.60636
      10     C     3.25251  3.25251  0.00000 -0.50502
      11     H     0.39465  0.39465  0.00000  0.21069
      12     H     0.40779  0.40779  0.00000  0.18441
      13     H     0.42156  0.42156  0.00000  0.15688
      14     H     0.36933  0.36933  0.00000  0.26133
      15     H     0.41134  0.41134  0.00000  0.17731
      16     H     0.40044  0.40044  0.00000  0.19912
      17     H     0.41509  0.41509  0.00000  0.16981

   Total alpha = 28.00000, Total beta = 28.00000, Total charge =  0.00000


*** PSI4 exiting successfully. Buy a developer a beer!
