    -----------------------------------------------------------------------
          Psi4: An Open-Source Ab Initio Electronic Structure Package
                              Psi4 (no tag) Driver

                          Git: Rev {detached?}  

    J. M. Turney, A. C. Simmonett, R. M. Parrish, E. G. Hohenstein,
    F. A. Evangelista, J. T. Fermann, B. J. Mintz, L. A. Burns, J. J. Wilke,
    M. L. Abrams, N. J. Russ, M. L. Leininger, C. L. Janssen, E. T. Seidl,
    W. D. Allen, H. F. Schaefer, R. A. King, E. F. Valeev, C. D. Sherrill,
    and T. D. Crawford, WIREs Comput. Mol. Sci. 2, 556-565 (2012)
    (doi: 10.1002/wcms.93)

                         Additional Contributions by
    A. E. DePrince, M. Saitow, U. Bozkaya, A. Yu. Sokolov
    -----------------------------------------------------------------------


    Psi4 started on: Tue Jul  5 16:28:55 2016

    Process ID:  13734
    PSI4DATADIR: /export131/home/mjharvey/miniconda3/share
    Memory level set to 256.000 MB

  ==> Input File <==

--------------------------------------------------------------------------
set {
	reference rhf
	basis 6-31G*
}


set_num_threads( 1 )
memory 2 gb

molecule MOL {
0 1

O	 2.134291	 1.807497	 -0.189915
C	 0.987211	 1.453279	 -0.248557
C	 -0.114609	 2.473840	 -0.464281
N	 0.623947	 0.147590	 -0.102813
H	 -0.825407	 2.470502	 0.354766
H	 0.352511	 3.445079	 -0.523783
H	 -0.659083	 2.284821	 -1.383194
C	 1.665360	 -0.855771	 0.000151
C	 -0.700322	 -0.361120	 -0.385249
H	 2.465253	 -0.618490	 -0.692587
H	 1.257730	 -1.821716	 -0.242189
H	 2.081488	 -0.891645	 1.004627
H	 -0.906830	 -1.196514	 0.273165
H	 -1.458147	 0.386143	 -0.211371
H	 -0.790166	 -0.712763	 -1.411450

	symmetry c1
}
set optking {
	frozen_dihedral = ("
		8 4 2 3
	")
}

ee = energy('scf')
oeprop('DIPOLE', 'QUADRUPOLE', 'MULLIKEN_CHARGES')
f=open( 'psi4out.xyz', 'w' )
f.write( "15  " )
f.write( str(ee) + "\n" )
f.write( MOL.save_string_xyz() )
f.close()
--------------------------------------------------------------------------

  Memory set to   2.000 GiB by Python script.

*** tstart() called on cx1-3-2-1.cx1.hpc.ic.ac.uk
*** at Tue Jul  5 16:28:55 2016


         ---------------------------------------------------------
                                   SCF
            by Justin Turney, Rob Parrish, and Andy Simmonett
                              RHF Reference
                        1 Threads,   2000 MiB Core
         ---------------------------------------------------------

  ==> Geometry <==

    Molecular point group: c1
    Full point group: C1

    Geometry (in Angstrom), charge = 0, multiplicity = 1:

       Center              X                  Y                   Z               Mass       
    ------------   -----------------  -----------------  -----------------  -----------------
           O          1.371030505725     1.039459523808     0.045609916006    15.994914619560
           C          0.223950505725     0.685241523808    -0.013032083994    12.000000000000
           C         -0.877869494275     1.705802523808    -0.228756083994    12.000000000000
           N         -0.139313494275    -0.620447476192     0.132711916006    14.003074004780
           H         -1.588667494275     1.702464523808     0.590290916006     1.007825032070
           H         -0.410749494275     2.677041523808    -0.288258083994     1.007825032070
           H         -1.422343494275     1.516783523808    -1.147669083994     1.007825032070
           C          0.902099505725    -1.623808476192     0.235675916006    12.000000000000
           C         -1.463582494275    -1.129157476192    -0.149724083994    12.000000000000
           H          1.701992505725    -1.386527476192    -0.457062083994     1.007825032070
           H          0.494469505725    -2.589753476192    -0.006664083994     1.007825032070
           H          1.318227505725    -1.659682476192     1.240151916006     1.007825032070
           H         -1.670090494275    -1.964551476192     0.508689916006     1.007825032070
           H         -2.221407494275    -0.381894476192     0.024153916006     1.007825032070
           H         -1.553426494275    -1.480800476192    -1.175925083994     1.007825032070

  Running in c1 symmetry.

  Rotational constants: A =      0.16610  B =      0.11521  C =      0.07082 [cm^-1]
  Rotational constants: A =   4979.62608  B =   3453.97083  C =   2123.24994 [MHz]
  Nuclear repulsion =  252.351229016029436

  Charge       = 0
  Multiplicity = 1
  Electrons    = 48
  Nalpha       = 24
  Nbeta        = 24

  ==> Algorithm <==

  SCF Algorithm Type is DF.
  DIIS enabled.
  MOM disabled.
  Fractional occupation disabled.
  Guess Type is CORE.
  Energy threshold   = 1.00e-06
  Density threshold  = 1.00e-06
  Integral threshold = 0.00e+00

  ==> Primary Basis <==

  Basis Set: 6-31G*
    Number of shells: 54
    Number of basis function: 108
    Number of Cartesian functions: 108
    Spherical Harmonics?: false
    Max angular momentum: 2

  ==> Pre-Iterations <==

   -------------------------------------------------------
    Irrep   Nso     Nmo     Nalpha   Nbeta   Ndocc  Nsocc
   -------------------------------------------------------
     A        108     108       0       0       0       0
   -------------------------------------------------------
    Total     108     108      24      24      24       0
   -------------------------------------------------------

 OEINTS: Overlap, kinetic, potential, dipole, and quadrupole integrals
         stored in file 35.

  ==> Integral Setup <==

  ==> DFJK: Density-Fitted J/K Matrices <==

    J tasked:                  Yes
    K tasked:                  Yes
    wK tasked:                  No
    OpenMP threads:              1
    Integrals threads:           1
    Memory (MB):              1430
    Algorithm:                Core
    Integral Cache:           NONE
    Schwarz Cutoff:          1E-12
    Fitting Condition:       1E-12

   => Auxiliary Basis Set <=

  Basis Set: 
    Number of shells: 225
    Number of basis function: 711
    Number of Cartesian functions: 711
    Spherical Harmonics?: false
    Max angular momentum: 3

  Minimum eigenvalue in the overlap matrix is 3.6140210574E-03.
  Using Symmetric Orthogonalization.
  SCF Guess: Core (One-Electron) Hamiltonian.

  ==> Iterations <==

                           Total Energy        Delta E     RMS |[F,P]|

   @DF-RHF iter   1:  -204.48259524669379   -2.04483e+02   8.85338e-02 
   @DF-RHF iter   2:  -226.56544027891806   -2.20828e+01   4.83328e-02 DIIS
   @DF-RHF iter   3:  -231.72158036791581   -5.15614e+00   7.17967e-02 DIIS
   @DF-RHF iter   4:  -270.58755504823961   -3.88660e+01   4.55797e-02 DIIS
   @DF-RHF iter   5:  -279.45416461627752   -8.86661e+00   3.24347e-02 DIIS
   @DF-RHF iter   6:  -281.52627588562797   -2.07211e+00   2.44614e-02 DIIS
   @DF-RHF iter   7:  -285.16402591408433   -3.63775e+00   1.12506e-02 DIIS
   @DF-RHF iter   8:  -285.91271364694313   -7.48688e-01   3.82193e-03 DIIS
   @DF-RHF iter   9:  -286.01304124919528   -1.00328e-01   1.38576e-03 DIIS
   @DF-RHF iter  10:  -286.02650735206186   -1.34661e-02   2.63159e-04 DIIS
   @DF-RHF iter  11:  -286.02762558717797   -1.11824e-03   1.08150e-04 DIIS
   @DF-RHF iter  12:  -286.02779597362172   -1.70386e-04   4.47089e-05 DIIS
   @DF-RHF iter  13:  -286.02783422498129   -3.82514e-05   2.86537e-05 DIIS
   @DF-RHF iter  14:  -286.02784203039045   -7.80541e-06   5.96123e-06 DIIS
   @DF-RHF iter  15:  -286.02784266808800   -6.37698e-07   1.68931e-06 DIIS
   @DF-RHF iter  16:  -286.02784270648732   -3.83993e-08   3.69003e-07 DIIS

  ==> Post-Iterations <==

    Orbital Energies (a.u.)
    -----------------------

    Doubly Occupied:                                                      

       1A    -20.514411     2A    -15.582897     3A    -11.340126  
       4A    -11.266847     5A    -11.249411     6A    -11.227570  
       7A     -1.383267     8A     -1.243576     9A     -1.013636  
      10A     -0.972567    11A     -0.920210    12A     -0.737608  
      13A     -0.679413    14A     -0.658046    15A     -0.650268  
      16A     -0.587449    17A     -0.575382    18A     -0.572591  
      19A     -0.566210    20A     -0.547397    21A     -0.529383  
      22A     -0.498775    23A     -0.409488    24A     -0.365585  

    Virtual:                                                              

      25A      0.207534    26A      0.223928    27A      0.267856  
      28A      0.282592    29A      0.294311    30A      0.303971  
      31A      0.310169    32A      0.319176    33A      0.340281  
      34A      0.353966    35A      0.378651    36A      0.392883  
      37A      0.443638    38A      0.506301    39A      0.593507  
      40A      0.698708    41A      0.711369    42A      0.747114  
      43A      0.774031    44A      0.785442    45A      0.821076  
      46A      0.851982    47A      0.882296    48A      0.897295  
      49A      0.948222    50A      0.979620    51A      1.006387  
      52A      1.058826    53A      1.111374    54A      1.116422  
      55A      1.123991    56A      1.146006    57A      1.155652  
      58A      1.168104    59A      1.182985    60A      1.195885  
      61A      1.225432    62A      1.228967    63A      1.251025  
      64A      1.285031    65A      1.299798    66A      1.365149  
      67A      1.398266    68A      1.537050    69A      1.568963  
      70A      1.623767    71A      1.652984    72A      1.708076  
      73A      1.751350    74A      1.818759    75A      1.947782  
      76A      2.051299    77A      2.101032    78A      2.105873  
      79A      2.187756    80A      2.206377    81A      2.235902  
      82A      2.301713    83A      2.313928    84A      2.336902  
      85A      2.374438    86A      2.421410    87A      2.427781  
      88A      2.498087    89A      2.588093    90A      2.606790  
      91A      2.640073    92A      2.666095    93A      2.700180  
      94A      2.726398    95A      2.861578    96A      2.915430  
      97A      2.977661    98A      3.034139    99A      3.059964  
     100A      3.325298   101A      3.394991   102A      3.590169  
     103A      4.435224   104A      4.453627   105A      4.602746  
     106A      4.703584   107A      4.786590   108A      4.940858  

    Final Occupation by Irrep:
              A 
    DOCC [    24 ]

  Energy converged.

  @DF-RHF Final Energy:  -286.02784270648732

   => Energetics <=

    Nuclear Repulsion Energy =            252.3512290160294356
    One-Electron Energy =                -888.5737800177039389
    Two-Electron Energy =                 350.1947082951866150
    DFT Exchange-Correlation Energy =       0.0000000000000000
    Empirical Dispersion Energy =           0.0000000000000000
    PCM Polarization Energy =               0.0000000000000000
    EFP Energy =                            0.0000000000000000
    Total Energy =                       -286.0278427064878315

    Alert: EFP and PCM quantities not currently incorporated into SCF psivars.

Properties will be evaluated at   0.000000,   0.000000,   0.000000 Bohr
  ==> Properties <==


Properties computed using the SCF density matrix

  Nuclear Dipole Moment: (a.u.)
     X:    -5.0103      Y:    -3.3371      Z:    -0.6679

  Electronic Dipole Moment: (a.u.)
     X:     3.6412      Y:     2.5540      Z:     0.5058

  Dipole Moment: (a.u.)
     X:    -1.3691      Y:    -0.7831      Z:    -0.1621     Total:     1.5855

  Dipole Moment: (Debye)
     X:    -3.4799      Y:    -1.9904      Z:    -0.4120     Total:     4.0301


  Saving occupied orbitals to File 180.

*** tstop() called on cx1-3-2-1.cx1.hpc.ic.ac.uk at Tue Jul  5 16:29:02 2016
Module time:
	user time   =       6.48 seconds =       0.11 minutes
	system time =       0.04 seconds =       0.00 minutes
	total time  =          7 seconds =       0.12 minutes
Total time:
	user time   =       6.48 seconds =       0.11 minutes
	system time =       0.04 seconds =       0.00 minutes
	total time  =          7 seconds =       0.12 minutes


Properties will be evaluated at   0.000000,   0.000000,   0.000000 Bohr

Properties computed using the  density matrix

  Nuclear Dipole Moment: (a.u.)
     X:    -5.0103      Y:    -3.3371      Z:    -0.6679

  Electronic Dipole Moment: (a.u.)
     X:     3.6412      Y:     2.5540      Z:     0.5058

  Dipole Moment: (a.u.)
     X:    -1.3691      Y:    -0.7831      Z:    -0.1621     Total:     1.5855

  Dipole Moment: (Debye)
     X:    -3.4799      Y:    -1.9904      Z:    -0.4120     Total:     4.0301

  Quadrupole Moment: (Debye Ang)
    XX:   -39.9803     YY:   -35.5584     ZZ:   -37.3494
    XY:    -4.0347     XZ:     0.0656     YZ:    -0.3247

  Traceless Quadrupole Moment: (Debye Ang)
    XX:    -2.3509     YY:     2.0709     ZZ:     0.2800
    XY:    -4.0347     XZ:     0.0656     YZ:    -0.3247

  Mulliken Charges: (a.u.)
   Center  Symbol    Alpha    Beta     Spin     Total
       1     O     4.30323  4.30323  0.00000 -0.60647
       2     C     2.62518  2.62518  0.00000  0.74965
       3     C     3.29850  3.29850  0.00000 -0.59699
       4     N     3.82264  3.82264  0.00000 -0.64529
       5     H     0.40669  0.40669  0.00000  0.18662
       6     H     0.39070  0.39070  0.00000  0.21861
       7     H     0.40829  0.40829  0.00000  0.18342
       8     C     3.13942  3.13942  0.00000 -0.27885
       9     C     3.14381  3.14381  0.00000 -0.28763
      10     H     0.40092  0.40092  0.00000  0.19816
      11     H     0.41752  0.41752  0.00000  0.16497
      12     H     0.40952  0.40952  0.00000  0.18096
      13     H     0.40937  0.40937  0.00000  0.18126
      14     H     0.40780  0.40780  0.00000  0.18440
      15     H     0.41640  0.41640  0.00000  0.16719

   Total alpha = 24.00000, Total beta = 24.00000, Total charge = -0.00000


*** PSI4 exiting successfully. Buy a developer a beer!
