
    -----------------------------------------------------------------------
          Psi4: An Open-Source Ab Initio Electronic Structure Package
                               Psi4 1.1 release

                         Git: Rev {HEAD} add49b9 


    R. M. Parrish, L. A. Burns, D. G. A. Smith, A. C. Simmonett,
    A. E. DePrince III, E. G. Hohenstein, U. Bozkaya, A. Yu. Sokolov,
    R. Di Remigio, R. M. Richard, J. F. Gonthier, A. M. James,
    H. R. McAlexander, A. Kumar, M. Saitow, X. Wang, B. P. Pritchard,
    P. Verma, H. F. Schaefer III, K. Patkowski, R. A. King, E. F. Valeev,
    F. A. Evangelista, J. M. Turney, T. D. Crawford, and C. D. Sherrill,
    J. Chem. Theory Comput. in press (2017).
    (doi: 10.1021/acs.jctc.7b00174)

    -----------------------------------------------------------------------


    Psi4 started on: Friday, 11 August 2017 09:48PM

    Process ID:   2279
    PSIDATADIR: /home/raimis/opt/miniconda3/envs/htmd/share/psi4
    Memory:     500.0 MiB
    Threads:    1
    
  ==> Input File <==

--------------------------------------------------------------------------
set {
	reference rks
	basis 6-31G*
}


set_num_threads( 8 )
memory 2 gb

molecule MOL {
1 1

C	 0.246378	 1.317506	 -2.254478
C	 1.482472	 1.959517	 -2.052094
C	 1.712003	 3.206994	 -2.623791
C	 0.714652	 3.821595	 -3.387193
C	 -0.516052	 3.188337	 -3.586132
C	 -0.753886	 1.936588	 -3.027313
C	 -0.000000	 -0.000000	 -1.658508
H	 2.275218	 1.467229	 -1.495818
H	 2.670804	 3.695288	 -2.483067
H	 0.897000	 4.796699	 -3.828278
H	 -1.292634	 3.674460	 -4.167628
H	 -1.726358	 1.467796	 -3.148847
N	 -0.712589	 -0.905950	 -2.322235
N	 0.489627	 -0.286337	 -0.455454
H	 0.426712	 -1.208880	 -0.041060
H	 0.887815	 0.448345	 0.114611
H	 -1.377189	 -1.485970	 -1.827091
H	 -0.673431	 -1.006470	 -3.329771

	symmetry c1
}
set optking { dynamic_level = 1 }
set optking {
	frozen_dihedral = ("
		1 7 13 17
	")
}

ee,wfn = optimize('b3lyp-d3', return_wfn=True)
oeprop( wfn, 'DIPOLE', 'QUADRUPOLE', 'MULLIKEN_CHARGES')
f=open( 'psi4out.xyz', 'w' )
f.write( "18  " )
f.write( str(ee) + "\n" )
f.write( MOL.save_string_xyz() )
f.close()
--------------------------------------------------------------------------
  Threads set to 8 by Python driver.

  Memory set to   1.863 GiB by Python driver.
gradient() will perform analytic gradient computation.

*** tstart() called on computer03
*** at Fri Aug 11 21:48:04 2017

   => Loading Basis Set <=

    Name: 6-31G*
    Role: ORBITAL
    Keyword: BASIS
    atoms 1-7         entry C          line   102 file /home/raimis/opt/miniconda3/envs/htmd/share/psi4/basis/6-31gs.gbs 
    atoms 8-12, 15-18 entry H          line    35 file /home/raimis/opt/miniconda3/envs/htmd/share/psi4/basis/6-31gs.gbs 
    atoms 13-14       entry N          line   119 file /home/raimis/opt/miniconda3/envs/htmd/share/psi4/basis/6-31gs.gbs 


         ---------------------------------------------------------
                                   SCF
            by Justin Turney, Rob Parrish, and Andy Simmonett
                              RKS Reference
                        8 Threads,   1907 MiB Core
         ---------------------------------------------------------

  ==> Geometry <==

    Molecular point group: c1
    Full point group: C1

    Geometry (in Angstrom), charge = 1, multiplicity = 1:

       Center              X                  Y                   Z               Mass       
    ------------   -----------------  -----------------  -----------------  -----------------
           C         -0.031206051747    -0.172559070877     0.077396399500    12.000000000000
           C          1.204887948253     0.469451929123     0.279780399500    12.000000000000
           C          1.434418948253     1.716928929123    -0.291916600500    12.000000000000
           C          0.437067948253     2.331529929123    -1.055318600500    12.000000000000
           C         -0.793636051747     1.698271929123    -1.254257600500    12.000000000000
           C         -1.031470051747     0.446522929123    -0.695438600500    12.000000000000
           C         -0.277584051747    -1.490065070877     0.673366399500    12.000000000000
           H          1.997633948253    -0.022836070877     0.836056399500     1.007825032070
           H          2.393219948253     2.205222929123    -0.151192600500     1.007825032070
           H          0.619415948253     3.306633929123    -1.496403600500     1.007825032070
           H         -1.570218051747     2.184394929123    -1.835753600500     1.007825032070
           H         -2.003942051747    -0.022269070877    -0.816972600500     1.007825032070
           N         -0.990173051747    -2.396015070877     0.009639399500    14.003074004780
           N          0.212042948253    -1.776402070877     1.876420399500    14.003074004780
           H          0.149127948253    -2.698945070877     2.290814399500     1.007825032070
           H          0.610230948253    -1.041720070877     2.446485399500     1.007825032070
           H         -1.654773051747    -2.976035070877     0.504783399500     1.007825032070
           H         -0.951015051747    -2.496535070877    -0.997896600500     1.007825032070

  Running in c1 symmetry.

  Rotational constants: A =      0.12149  B =      0.03958  C =      0.03132 [cm^-1]
  Rotational constants: A =   3642.20585  B =   1186.51475  C =    938.92402 [MHz]
  Nuclear repulsion =  416.764715661939363

  Charge       = 1
  Multiplicity = 1
  Electrons    = 64
  Nalpha       = 32
  Nbeta        = 32

  ==> Algorithm <==

  SCF Algorithm Type is DF.
  DIIS enabled.
  MOM disabled.
  Fractional occupation disabled.
  Guess Type is SAD.
  Energy threshold   = 1.00e-08
  Density threshold  = 1.00e-08
  Integral threshold = 0.00e+00

  ==> Primary Basis <==

  Basis Set: 6-31G*
    Blend: 6-31G*
    Number of shells: 72
    Number of basis function: 153
    Number of Cartesian functions: 153
    Spherical Harmonics?: false
    Max angular momentum: 2

  ==> DFT Potential <==

   => B3LYP Composite Functional <= 

    B3LYP Hybrid-GGA Exchange-Correlation Functional (VWN1-RPA)

    P.J. Stephens et. al., J. Phys. Chem., 98, 11623-11627, 1994

    Points   =           5000
    Deriv    =              1
    GGA      =           TRUE
    Meta     =          FALSE

    X_LRC        =          FALSE
    X_Hybrid     =           TRUE
    X_Alpha      =   2.000000E-01
    X_Omega      =   0.000000E+00
    C_LRC        =          FALSE
    C_Hybrid     =          FALSE
    C_Alpha      =   0.000000E+00
    C_Omega      =   0.000000E+00

   => Exchange Functionals <=

    0.8000    B3_X
    0.2000      HF 

   => Correlation Functionals <=

    0.1900 VWN3RPA_C
    0.8100   LYP_C

   => Molecular Quadrature <=

    Radial Scheme    =       TREUTLER
    Pruning Scheme   =           FLAT
    Nuclear Scheme   =       TREUTLER

    BS radius alpha  =              1
    Pruning alpha    =              1
    Radial Points    =             75
    Spherical Points =            302
    Total Points     =         397042
    Total Blocks     =            338
    Max Points       =           4900
    Max Functions    =            150

   => -D3ZERO: Empirical Dispersion <=

    Grimme's -D3 (zero-damping) Dispersion Correction
    Grimme S.; Antony J.; Ehrlich S.; Krieg H. (2010), J. Chem. Phys., 132: 154104

        S6 =   1.000000E+00
        S8 =   1.703000E+00
       SR6 =   1.261000E+00
    ALPHA6 =   1.400000E+01

   => Loading Basis Set <=

    Name: (6-31G* AUX)
    Role: JKFIT
    Keyword: DF_BASIS_SCF
    atoms 1-7         entry C          line   120 file /home/raimis/opt/miniconda3/envs/htmd/share/psi4/basis/cc-pvdz-jkfit.gbs 
    atoms 8-12, 15-18 entry H          line    50 file /home/raimis/opt/miniconda3/envs/htmd/share/psi4/basis/cc-pvdz-jkfit.gbs 
    atoms 13-14       entry N          line   170 file /home/raimis/opt/miniconda3/envs/htmd/share/psi4/basis/cc-pvdz-jkfit.gbs 

  ==> Pre-Iterations <==

   -------------------------------------------------------
    Irrep   Nso     Nmo     Nalpha   Nbeta   Ndocc  Nsocc
   -------------------------------------------------------
     A        153     153       0       0       0       0
   -------------------------------------------------------
    Total     153     153      32      32      32       0
   -------------------------------------------------------

  ==> Integral Setup <==

  ==> DFJK: Density-Fitted J/K Matrices <==

    J tasked:                  Yes
    K tasked:                  Yes
    wK tasked:                  No
    OpenMP threads:              8
    Integrals threads:           8
    Memory (MB):              1430
    Algorithm:                Core
    Integral Cache:           NONE
    Schwarz Cutoff:          1E-12
    Fitting Condition:       1E-12

   => Auxiliary Basis Set <=

  Basis Set: (6-31G* AUX)
    Blend: CC-PVDZ-JKFIT
    Number of shells: 297
    Number of basis function: 954
    Number of Cartesian functions: 954
    Spherical Harmonics?: false
    Max angular momentum: 3

  Minimum eigenvalue in the overlap matrix is 4.8707009331E-04.
  Using Symmetric Orthogonalization.

  SCF Guess: Superposition of Atomic Densities via on-the-fly atomic UHF.

  ==> Iterations <==

                           Total Energy        Delta E     RMS |[F,P]|

   @DF-RKS iter   0:  -379.93537513715603   -3.79935e+02   6.84201e-02 
   @DF-RKS iter   1:  -381.08176103449529   -1.14639e+00   1.11541e-02 
   @DF-RKS iter   2:  -380.97149741171557    1.10264e-01   1.27057e-02 DIIS
   @DF-RKS iter   3:  -381.44778679533459   -4.76289e-01   2.03566e-03 DIIS
   @DF-RKS iter   4:  -381.45877978340656   -1.09930e-02   8.90423e-04 DIIS
   @DF-RKS iter   5:  -381.46093992222649   -2.16014e-03   3.15773e-04 DIIS
   @DF-RKS iter   6:  -381.46133957025955   -3.99648e-04   6.96015e-05 DIIS
   @DF-RKS iter   7:  -381.46136015190757   -2.05816e-05   2.24928e-05 DIIS
   @DF-RKS iter   8:  -381.46136158297736   -1.43107e-06   5.77532e-06 DIIS
   @DF-RKS iter   9:  -381.46136165832905   -7.53517e-08   2.74757e-06 DIIS
   @DF-RKS iter  10:  -381.46136167769117   -1.93621e-08   4.48278e-07 DIIS
   @DF-RKS iter  11:  -381.46136167858725   -8.96080e-10   1.70168e-07 DIIS
   @DF-RKS iter  12:  -381.46136167866371   -7.64544e-11   7.66633e-08 DIIS
   @DF-RKS iter  13:  -381.46136167868531   -2.16005e-11   7.65786e-09 DIIS

  ==> Post-Iterations <==

    Orbital Energies (a.u.)
    -----------------------

    Doubly Occupied:                                                      

       1A    -14.571649     2A    -14.556371     3A    -10.494913  
       4A    -10.370927     5A    -10.356047     6A    -10.355579  
       7A    -10.344650     8A    -10.340525     9A    -10.340092  
      10A     -1.180750    11A     -1.088517    12A     -1.013731  
      13A     -0.925160    14A     -0.901795    15A     -0.843260  
      16A     -0.782022    17A     -0.769191    18A     -0.740770  
      19A     -0.729562    20A     -0.699637    21A     -0.669640  
      22A     -0.626151    23A     -0.609669    24A     -0.582128  
      25A     -0.577837    26A     -0.563227    27A     -0.518732  
      28A     -0.505158    29A     -0.497510    30A     -0.468824  
      31A     -0.413385    32A     -0.405470  

    Virtual:                                                              

      33A     -0.228549    34A     -0.155822    35A     -0.131989  
      36A     -0.102139    37A     -0.069644    38A     -0.053281  
      39A     -0.037624    40A     -0.022793    41A      0.007328  
      42A      0.013259    43A      0.021912    44A      0.054014  
      45A      0.061679    46A      0.088701    47A      0.132394  
      48A      0.142247    49A      0.155007    50A      0.158253  
      51A      0.205403    52A      0.241731    53A      0.297641  
      54A      0.354095    55A      0.356547    56A      0.381851  
      57A      0.390685    58A      0.397624    59A      0.420797  
      60A      0.421419    61A      0.442923    62A      0.448520  
      63A      0.452711    64A      0.471265    65A      0.474506  
      66A      0.480349    67A      0.487129    68A      0.519668  
      69A      0.520343    70A      0.535835    71A      0.550633  
      72A      0.587185    73A      0.611696    74A      0.651768  
      75A      0.669471    76A      0.685579    77A      0.693082  
      78A      0.702390    79A      0.711638    80A      0.718206  
      81A      0.728603    82A      0.749800    83A      0.773341  
      84A      0.783281    85A      0.808214    86A      0.818713  
      87A      0.855004    88A      0.938239    89A      0.950202  
      90A      0.978666    91A      1.002858    92A      1.020801  
      93A      1.067101    94A      1.072669    95A      1.115243  
      96A      1.143281    97A      1.232898    98A      1.274739  
      99A      1.280369   100A      1.307188   101A      1.319476  
     102A      1.342836   103A      1.360847   104A      1.379534  
     105A      1.443846   106A      1.470855   107A      1.531197  
     108A      1.605669   109A      1.628568   110A      1.658036  
     111A      1.664409   112A      1.736165   113A      1.751982  
     114A      1.800999   115A      1.817576   116A      1.828813  
     117A      1.894435   118A      1.918394   119A      1.961468  
     120A      1.977255   121A      1.986979   122A      2.000302  
     123A      2.025786   124A      2.043053   125A      2.126462  
     126A      2.131300   127A      2.154232   128A      2.200821  
     129A      2.232198   130A      2.327760   131A      2.367517  
     132A      2.374494   133A      2.447633   134A      2.451809  
     135A      2.489145   136A      2.512799   137A      2.551463  
     138A      2.587321   139A      2.600226   140A      2.629348  
     141A      2.736669   142A      2.856893   143A      2.981680  
     144A      3.258741   145A      3.633524   146A      3.663976  
     147A      3.913061   148A      3.947026   149A      3.963989  
     150A      4.048543   151A      4.174248   152A      4.255265  
     153A      4.546484  

    Final Occupation by Irrep:
              A 
    DOCC [    32 ]

  Energy converged.

  @DF-RKS Final Energy:  -381.46136167868531

   => Energetics <=

    Nuclear Repulsion Energy =            416.7647156619393627
    One-Electron Energy =               -1328.8179717522996270
    Two-Electron Energy =                 575.0104699529424579
    DFT Exchange-Correlation Energy =     -44.4066174412675352
    Empirical Dispersion Energy =          -0.0119581000000000
    PCM Polarization Energy =               0.0000000000000000
    EFP Energy =                            0.0000000000000000
    Total Energy =                       -381.4613616786853640



Properties will be evaluated at   0.000000,   0.000000,   0.000000 Bohr

Properties computed using the SCF density matrix

  Nuclear Dipole Moment: (a.u.)
     X:    -0.3824      Y:    -1.4523      Z:     0.7257

  Electronic Dipole Moment: (a.u.)
     X:    -0.0448      Y:    -0.4694      Z:     0.2444

  Dipole Moment: (a.u.)
     X:    -0.4272      Y:    -1.9217      Z:     0.9701     Total:     2.1946

  Dipole Moment: (Debye)
     X:    -1.0859      Y:    -4.8844      Z:     2.4657     Total:     5.5781


*** tstop() called on computer03 at Fri Aug 11 21:48:59 2017
Module time:
	user time   =      90.90 seconds =       1.52 minutes
	system time =       1.34 seconds =       0.02 minutes
	total time  =         55 seconds =       0.92 minutes
Total time:
	user time   =      90.90 seconds =       1.52 minutes
	system time =       1.34 seconds =       0.02 minutes
	total time  =         55 seconds =       0.92 minutes

*** tstart() called on computer03
*** at Fri Aug 11 21:48:59 2017


         ------------------------------------------------------------
                                   SCF GRAD                          
                          Rob Parrish, Justin Turney,                
                       Andy Simmonett, and Alex Sokolov              
         ------------------------------------------------------------

  ==> Geometry <==

    Molecular point group: c1
    Full point group: C1

    Geometry (in Angstrom), charge = 1, multiplicity = 1:

       Center              X                  Y                   Z               Mass       
    ------------   -----------------  -----------------  -----------------  -----------------
           C         -0.031206051747    -0.172559070877     0.077396399500    12.000000000000
           C          1.204887948253     0.469451929123     0.279780399500    12.000000000000
           C          1.434418948253     1.716928929123    -0.291916600500    12.000000000000
           C          0.437067948253     2.331529929123    -1.055318600500    12.000000000000
           C         -0.793636051747     1.698271929123    -1.254257600500    12.000000000000
           C         -1.031470051747     0.446522929123    -0.695438600500    12.000000000000
           C         -0.277584051747    -1.490065070877     0.673366399500    12.000000000000
           H          1.997633948253    -0.022836070877     0.836056399500     1.007825032070
           H          2.393219948253     2.205222929123    -0.151192600500     1.007825032070
           H          0.619415948253     3.306633929123    -1.496403600500     1.007825032070
           H         -1.570218051747     2.184394929123    -1.835753600500     1.007825032070
           H         -2.003942051747    -0.022269070877    -0.816972600500     1.007825032070
           N         -0.990173051747    -2.396015070877     0.009639399500    14.003074004780
           N          0.212042948253    -1.776402070877     1.876420399500    14.003074004780
           H          0.149127948253    -2.698945070877     2.290814399500     1.007825032070
           H          0.610230948253    -1.041720070877     2.446485399500     1.007825032070
           H         -1.654773051747    -2.976035070877     0.504783399500     1.007825032070
           H         -0.951015051747    -2.496535070877    -0.997896600500     1.007825032070

  Nuclear repulsion =  416.764715661939363

  ==> Basis Set <==

  Basis Set: 6-31G*
    Blend: 6-31G*
    Number of shells: 72
    Number of basis function: 153
    Number of Cartesian functions: 153
    Spherical Harmonics?: false
    Max angular momentum: 2

  ==> DFJKGrad: Density-Fitted SCF Gradients <==

    Gradient:                    1
    J tasked:                  Yes
    K tasked:                  Yes
    wK tasked:                  No
    OpenMP threads:              8
    Integrals threads:           8
    Memory (MB):              1430
    Schwarz Cutoff:          0E+00
    Fitting Condition:       1E-12

   => Auxiliary Basis Set <=

  Basis Set: (6-31G* AUX)
    Blend: CC-PVDZ-JKFIT
    Number of shells: 297
    Number of basis function: 954
    Number of Cartesian functions: 954
    Spherical Harmonics?: false
    Max angular momentum: 3

  ==> DFT Potential <==

   => B3LYP Composite Functional <= 

    B3LYP Hybrid-GGA Exchange-Correlation Functional (VWN1-RPA)

    P.J. Stephens et. al., J. Phys. Chem., 98, 11623-11627, 1994

    Points   =           5000
    Deriv    =              1
    GGA      =           TRUE
    Meta     =          FALSE

    X_LRC        =          FALSE
    X_Hybrid     =           TRUE
    X_Alpha      =   2.000000E-01
    X_Omega      =   0.000000E+00
    C_LRC        =          FALSE
    C_Hybrid     =          FALSE
    C_Alpha      =   0.000000E+00
    C_Omega      =   0.000000E+00

   => Exchange Functionals <=

    0.8000    B3_X
    0.2000      HF 

   => Correlation Functionals <=

    0.1900 VWN3RPA_C
    0.8100   LYP_C

   => Molecular Quadrature <=

    Radial Scheme    =       TREUTLER
    Pruning Scheme   =           FLAT
    Nuclear Scheme   =       TREUTLER

    BS radius alpha  =              1
    Pruning alpha    =              1
    Radial Points    =             75
    Spherical Points =            302
    Total Points     =         397042
    Total Blocks     =            338
    Max Points       =           4900
    Max Functions    =            150


  -Total Gradient:
     Atom            X                  Y                   Z
    ------   -----------------  -----------------  -----------------
       1       -0.007239480376     0.006188708162    -0.000431800826
       2       -0.001255151101    -0.003208763795     0.000993934072
       3       -0.001212929778     0.000730325609    -0.001516142788
       4        0.000384324327    -0.000005007834     0.000282546859
       5        0.000294719766     0.000162893858    -0.000664915030
       6        0.001937078898     0.000270812139     0.001325145188
       7       -0.010708031812    -0.014744665778     0.002112158091
       8       -0.000154884965     0.000213830824     0.000187948165
       9       -0.000011631497    -0.000137137269     0.000109731612
      10       -0.000096087449    -0.000005781857     0.000111565466
      11        0.000026607681    -0.000018569750    -0.000048152891
      12       -0.001185940205     0.001205260330     0.000270450649
      13        0.011935253447     0.010902410946    -0.001615738426
      14        0.006333370271    -0.002352016003    -0.000488188629
      15       -0.000054250500     0.001503444089     0.001615912662
      16        0.001496993015    -0.001236794092    -0.001589880472
      17       -0.005218641245     0.010024996621     0.000166703218
      18        0.004719213989    -0.009512582182    -0.000816606504


*** tstop() called on computer03 at Fri Aug 11 21:49:10 2017
Module time:
	user time   =      23.13 seconds =       0.39 minutes
	system time =       0.37 seconds =       0.01 minutes
	total time  =         11 seconds =       0.18 minutes
Total time:
	user time   =     114.20 seconds =       1.90 minutes
	system time =       1.72 seconds =       0.03 minutes
	total time  =         66 seconds =       1.10 minutes

			-----------------------------------------
			 OPTKING 2.0: for geometry optimizations 
			  - R.A. King,  Bethel University        
			-----------------------------------------
	At level 1: Red. Int., RFO, no backsteps, dynamic trust

	Internal coordinates to be generated automatically.
	Detected frag 1 with atoms:  1 2 3 4 5 6 7 8 9 10 11 12 13 14 15 16 17 18
	---Fragment 1 Bond Connectivity---
	 1 : 2 6 7
	 2 : 1 3 8
	 3 : 2 4 9
	 4 : 3 5 10
	 5 : 4 6 11
	 6 : 1 5 12
	 7 : 1 13 14
	 8 : 2
	 9 : 3
	 10 : 4
	 11 : 5
	 12 : 6
	 13 : 7 17 18
	 14 : 7 15 16
	 15 : 14
	 16 : 14
	 17 : 13
	 18 : 13

	Assuming in current code that numbering for constraints corresponds to unified fragment.
	Frozen dihedral atom list: 
	     1     7    13    17
	---Fragment 1 Geometry and Gradient---
	 C          -0.0589708915       -0.3260893857        0.1462579987
	 C           2.2769082430        0.8871355786        0.5287083324
	 C           2.7106589720        3.2445254657       -0.5516424286
	 C           0.8259387237        4.4059530367       -1.9942631379
	 C          -1.4997547870        3.2092688452       -2.3702033650
	 C          -1.9491959121        0.8438060481       -1.3141884972
	 C          -0.5245578367       -2.8158149041        1.2724780821
	 H           3.7749810760       -0.0431539199        1.5799176267
	 H           4.5225302780        4.1672673980       -0.2857126083
	 H           1.1705265045        6.2486325478       -2.8277929892
	 H          -2.9672820867        4.1279081821       -3.4690715524
	 H          -3.7869016640       -0.0420824452       -1.5438544730
	 N          -1.8711558920       -4.5278122942        0.0182158251
	 N           0.4007031006       -3.3569134158        3.5459206652
	 H           0.2818109810       -5.1002670317        4.3290118363
	 H           1.1531693700       -1.9685656411        4.6231873932
	 H          -3.1270678799       -5.6238912458        0.9539023815
	 H          -1.7971579961       -4.7177675651       -1.8857512839
	            -0.0072394804        0.0061887082       -0.0004318008
	            -0.0012551511       -0.0032087638        0.0009939341
	            -0.0012129298        0.0007303256       -0.0015161428
	             0.0003843243       -0.0000050078        0.0002825469
	             0.0002947198        0.0001628939       -0.0006649150
	             0.0019370789        0.0002708121        0.0013251452
	            -0.0107080318       -0.0147446658        0.0021121581
	            -0.0001548850        0.0002138308        0.0001879482
	            -0.0000116315       -0.0001371373        0.0001097316
	            -0.0000960874       -0.0000057819        0.0001115655
	             0.0000266077       -0.0000185697       -0.0000481529
	            -0.0011859402        0.0012052603        0.0002704506
	             0.0119352534        0.0109024109       -0.0016157384
	             0.0063333703       -0.0023520160       -0.0004881886
	            -0.0000542505        0.0015034441        0.0016159127
	             0.0014969930       -0.0012367941       -0.0015898805
	            -0.0052186412        0.0100249966        0.0001667032
	             0.0047192140       -0.0095125822       -0.0008166065

	Previous optimization step data not found.  Starting new optimization.

	---Fragment 1 Intrafragment Coordinates---
	 - Coordinate -           - BOHR/RAD -       - ANG/DEG -
	 R(1,2)           =         2.659796	       1.407503
	 R(1,6)           =         2.659795	       1.407503
	 R(1,7)           =         2.771981	       1.466869
	 R(2,3)           =         2.629179	       1.391302
	 R(2,8)           =         2.052974	       1.086387
	 R(3,4)           =         2.642393	       1.398294
	 R(3,9)           =         2.050622	       1.085142
	 R(4,5)           =         2.642392	       1.398294
	 R(4,10)          =         2.051580	       1.085649
	 R(5,6)           =         2.629178	       1.391301
	 R(5,11)          =         2.050621	       1.085142
	 R(6,12)          =         2.052975	       1.086388
	 R(7,13)          =         2.513451	       1.330061
	 R(7,14)          =         2.513451	       1.330061
	 R(13,17)         =         1.911600	       1.011575
	 R(13,18)         =         1.914850	       1.013295
	 R(14,15)         =         1.914850	       1.013295
	 R(14,16)         =         1.911601	       1.011576
	 B(1,2,3)         =         2.088381	     119.655400
	 B(1,2,8)         =         2.103397	     120.515747
	 B(1,6,5)         =         2.088381	     119.655418
	 B(1,6,12)        =         2.103395	     120.515655
	 B(1,7,13)        =         2.093263	     119.935149
	 B(1,7,14)        =         2.093264	     119.935215
	 B(2,1,6)         =         2.097218	     120.161759
	 B(2,1,7)         =         2.092983	     119.919071
	 B(2,3,4)         =         2.095278	     120.050609
	 B(2,3,9)         =         2.089719	     119.732106
	 B(3,2,8)         =         2.090148	     119.756642
	 B(3,4,5)         =         2.101793	     120.423895
	 B(3,4,10)        =         2.090696	     119.788053
	 B(4,3,9)         =         2.098136	     120.214328
	 B(4,5,6)         =         2.095279	     120.050638
	 B(4,5,11)        =         2.098136	     120.214324
	 B(5,4,10)        =         2.090696	     119.788051
	 B(5,6,12)        =         2.090149	     119.756713
	 B(6,1,7)         =         2.092984	     119.919170
	 B(6,5,11)        =         2.089719	     119.732078
	 B(7,13,17)       =         2.092411	     119.886337
	 B(7,13,18)       =         2.144861	     122.891462
	 B(7,14,15)       =         2.144861	     122.891475
	 B(7,14,16)       =         2.092411	     119.886339
	 B(13,7,14)       =         2.096658	     120.129636
	 B(15,14,16)      =         2.043399	     117.078125
	 B(17,13,18)      =         2.043399	     117.078143
	 D(1,2,3,4)       =         0.007800	       0.446925
	 D(1,2,3,9)       =        -3.122897	    -178.928843
	 D(1,6,5,4)       =         0.007799	       0.446853
	 D(1,6,5,11)      =        -3.122895	    -178.928708
	*D(1,7,13,17)     =        -2.443461	    -139.999998
	 D(1,7,13,18)     =         0.619715	      35.507066
	 D(1,7,14,15)     =        -3.032165	    -173.730239
	 D(1,7,14,16)     =         0.187845	      10.762740
	 D(2,1,6,5)       =        -0.003907	      -0.223851
	 D(2,1,6,12)      =        -3.091437	    -177.126317
	 D(2,1,7,13)      =        -2.505167	    -143.535516
	 D(2,1,7,14)      =         0.636425	      36.464488
	 D(2,3,4,5)       =        -0.003944	      -0.225996
	 D(2,3,4,10)      =         3.137650	     179.774095
	 D(3,2,1,6)       =        -0.003906	      -0.223822
	 D(3,2,1,7)       =         3.137686	     179.776182
	 D(3,4,5,6)       =        -0.003941	      -0.225820
	 D(3,4,5,11)      =         3.126700	     179.146702
	 D(4,3,2,8)       =         3.095746	     177.373208
	 D(4,5,6,12)      =         3.095744	     177.373070
	 D(5,4,3,9)       =         3.126700	     179.146735
	 D(5,6,1,7)       =         3.137686	     179.776144
	 D(6,1,2,8)       =        -3.091438	    -177.126349
	 D(6,1,7,13)      =         0.636425	      36.464489
	 D(6,1,7,14)      =        -2.505167	    -143.535507
	 D(6,5,4,10)      =         3.137650	     179.774089
	 D(7,1,2,8)       =         0.050155	       2.873656
	 D(7,1,6,12)      =         0.050155	       2.873678
	 D(8,2,3,9)       =        -0.034951	      -2.002561
	 D(9,3,4,10)      =        -0.014891	      -0.853174
	 D(10,4,5,11)     =        -0.014894	      -0.853389
	 D(11,5,6,12)     =        -0.034950	      -2.002491
	 D(13,7,14,15)    =         0.109428	       6.269764
	 D(13,7,14,16)    =        -2.953747	    -169.237256
	 D(14,7,13,17)    =         0.698132	      39.999998
	 D(14,7,13,18)    =        -2.521878	    -144.492938

	Current energy   :      -381.4613616787

	Generating empirical Hessian (Schlegel '84) for each fragment.
	Taking RFO optimization step.
	Going to follow RFO solution 1.
	Using RFO vector 1.
	Norm of target step-size    0.49122
	Projected energy change by RFO approximation:        -0.0103343460

	Back-transformation to cartesian coordinates...
	Could not converge backtransformation.
	Using first guess instead.

	Back-transformation to cartesian coordinates to adjust frozen coordinates...
	Successfully converged to displaced geometry.

	--- Internal Coordinate Step in ANG or DEG, aJ/ANG or AJ/DEG ---
	 ---------------------------------------------------------------------------
	   Coordinate                Previous        Force       Change         New 
	   ----------                --------       ------       ------       ------
	    1 R(1,2)          =      1.407503     0.019745     0.003621     1.411124
	    2 R(1,6)          =      1.407503    -0.000147     0.000532     1.408035
	    3 R(1,7)          =      1.466869    -0.026178    -0.004521     1.462348
	    4 R(2,3)          =      1.391302    -0.008002    -0.000575     1.390727
	    5 R(2,8)          =      1.086387     0.000940     0.000410     1.086797
	    6 R(3,4)          =      1.398294     0.008049     0.001470     1.399764
	    7 R(3,9)          =      1.085142     0.000470     0.000817     1.085959
	    8 R(4,5)          =      1.398294     0.006071     0.001907     1.400201
	    9 R(4,10)         =      1.085649     0.000540     0.000422     1.086072
	   10 R(5,6)          =      1.391301    -0.002348     0.000181     1.391482
	   11 R(5,11)         =      1.085142     0.000010     0.000366     1.085508
	   12 R(6,12)         =      1.086388    -0.004206     0.000985     1.087373
	   13 R(7,13)         =      1.330061     0.105245     0.015697     1.345758
	   14 R(7,14)         =      1.330061    -0.023837    -0.002228     1.327833
	   15 R(13,17)        =      1.011575     0.018447     0.003065     1.014640
	   16 R(13,18)        =      1.013295    -0.015967     0.030515     1.043810
	   17 R(14,15)        =      1.013295     0.005815     0.001287     1.014582
	   18 R(14,16)        =      1.011576     0.009918     0.001873     1.013449
	   19 B(1,2,3)        =    119.655400     0.000013     0.074322   119.729722
	   20 B(1,2,8)        =    120.515747    -0.000010    -0.031922   120.483826
	   21 B(1,6,5)        =    119.655418    -0.000027    -0.138912   119.516507
	   22 B(1,6,12)       =    120.515655    -0.000075    -0.320535   120.195120
	   23 B(1,7,13)       =    119.935149     0.000277     0.656985   120.592134
	   24 B(1,7,14)       =    119.935215     0.000121     0.335190   120.270404
	   25 B(2,1,6)        =    120.161759     0.000012     0.064403   120.226163
	   26 B(2,1,7)        =    119.919071     0.000280     0.811686   120.730757
	   27 B(2,3,4)        =    120.050609    -0.000050    -0.190030   119.860578
	   28 B(2,3,9)        =    119.732106     0.000038     0.156238   119.888343
	   29 B(3,2,8)        =    119.756642    -0.000002    -0.028349   119.728293
	   30 B(3,4,5)        =    120.423895     0.000041     0.134842   120.558737
	   31 B(3,4,10)       =    119.788053    -0.000024    -0.102646   119.685408
	   32 B(4,3,9)        =    120.214328     0.000012     0.031870   120.246198
	   33 B(4,5,6)        =    120.050638     0.000011     0.047525   120.098163
	   34 B(4,5,11)       =    120.214324    -0.000005     0.013205   120.227530
	   35 B(5,4,10)       =    119.788051    -0.000017    -0.033033   119.755018
	   36 B(5,6,12)       =    119.756713     0.000103     0.480476   120.237189
	   37 B(6,1,7)        =    119.919170    -0.000292    -0.876099   119.043070
	   38 B(6,5,11)       =    119.732078    -0.000006    -0.058186   119.673892
	   39 B(7,13,17)      =    119.886337     0.000517     1.941976   121.828312
	   40 B(7,13,18)      =    122.891462    -0.000560    -2.831285   120.060177
	   41 B(7,14,15)      =    122.891475    -0.000177    -0.813223   122.078252
	   42 B(7,14,16)      =    119.886339     0.000087     0.374405   120.260744
	   43 B(13,7,14)      =    120.129636    -0.000398    -1.373170   118.756466
	   44 B(15,14,16)     =    117.078125     0.000084     0.275601   117.353726
	   45 B(17,13,18)     =    117.078143     0.000013    -0.777055   116.301088
	   46 D(1,2,3,4)      =      0.446925    -0.000003    -0.382418     0.064508
	   47 D(1,2,3,9)      =   -178.928843    -0.000001    -0.205013  -179.133856
	   48 D(1,6,5,4)      =      0.446853     0.000004     0.512476     0.959328
	   49 D(1,6,5,11)     =   -178.928708     0.000001     0.121713  -178.806995
	   50 *D(1,7,13,17)   =   -139.999998    -0.000000    -0.000000  -139.999998
	   51 D(1,7,13,18)    =     35.507066    -0.000109   -11.397702    24.109364
	   52 D(1,7,14,15)    =   -173.730239    -0.000013    -1.914941  -175.645180
	   53 D(1,7,14,16)    =     10.762740     0.000005     0.128064    10.890804
	   54 D(2,1,6,5)      =     -0.223851    -0.000008    -1.000379    -1.224230
	   55 D(2,1,6,12)     =   -177.126317    -0.000012    -1.502430  -178.628747
	   56 D(2,1,7,13)     =   -143.535516    -0.000047    -7.307423  -150.842938
	   57 D(2,1,7,14)     =     36.464488     0.000008    -0.134176    36.330312
	   58 D(2,3,4,5)      =     -0.225996    -0.000001    -0.103984    -0.329979
	   59 D(2,3,4,10)     =    179.774095     0.000002     0.229543   180.003638
	   60 D(3,2,1,6)      =     -0.223822     0.000007     0.936373     0.712551
	   61 D(3,2,1,7)      =    179.776182     0.000007     0.973051   180.749233
	   62 D(3,4,5,6)      =     -0.225820     0.000000     0.037731    -0.188090
	   63 D(3,4,5,11)     =    179.146702     0.000003     0.430228   179.576930
	   64 D(4,3,2,8)      =    177.373208    -0.000001    -0.068337   177.304871
	   65 D(4,5,6,12)     =    177.373070     0.000007     0.989665   178.362735
	   66 D(5,4,3,9)      =    179.146735    -0.000002    -0.281255   178.865480
	   67 D(5,6,1,7)      =    179.776144    -0.000008    -1.036441   178.739703
	   68 D(6,1,2,8)      =   -177.126349     0.000005     0.619735  -176.506614
	   69 D(6,1,7,13)     =     36.464489    -0.000047    -7.271173    29.193316
	   70 D(6,1,7,14)     =   -143.535507     0.000008    -0.097927  -143.633434
	   71 D(6,5,4,10)     =    179.774089    -0.000002    -0.296028   179.478061
	   72 D(7,1,2,8)      =      2.873656     0.000005     0.656412     3.530068
	   73 D(7,1,6,12)     =      2.873678    -0.000012    -1.538492     1.335186
	   74 D(8,2,3,9)      =     -2.002561     0.000001     0.109068    -1.893493
	   75 D(9,3,4,10)     =     -0.853174     0.000000     0.052272    -0.800902
	   76 D(10,4,5,11)    =     -0.853389     0.000001     0.096469    -0.756919
	   77 D(11,5,6,12)    =     -2.002491     0.000004     0.598902    -1.403589
	   78 D(13,7,14,15)   =      6.269764     0.000042     5.127865    11.397630
	   79 D(13,7,14,16)   =   -169.237256     0.000060     7.170870  -162.066386
	   80 D(14,7,13,17)   =     39.999998    -0.000055    -7.066194    32.933804
	   81 D(14,7,13,18)   =   -144.492938    -0.000164   -18.463896  -162.956834
	 ---------------------------------------------------------------------------
	Successfully symmetrized geometry.

  ==> Convergence Check <==

  Measures of convergence in internal coordinates in au.
  Criteria marked as inactive (o), active & met (*), and active & unmet ( ).
  --------------------------------------------------------------------------------------------- ~
   Step     Total Energy     Delta E     MAX Force     RMS Force      MAX Disp      RMS Disp    ~
  --------------------------------------------------------------------------------------------- ~
    Convergence Criteria    1.00e-06 *    3.00e-04 *             o    1.20e-03 *             o  ~
  --------------------------------------------------------------------------------------------- ~
      1    -381.46136168   -3.81e+02      1.28e-02      2.62e-03 o    3.22e-01      5.32e-02 o  ~
  ---------------------------------------------------------------------------------------------

	Writing optimization data to binary file.
	Structure for next step:
	Cartesian Geometry (in Angstrom)
	    C     0.0187245641  -0.1900051011   0.0640939670
	    C     1.2352678417   0.4891923188   0.2876670164
	    C     1.4343276998   1.7484491836  -0.2680028266
	    C     0.4276086388   2.3349385674  -1.0438166615
	    C    -0.7785459211   1.6614574305  -1.2722370074
	    C    -0.9849199251   0.3965217333  -0.7304161974
	    C    -0.2202207580  -1.5078283609   0.6512127800
	    H     2.0345090517   0.0170488783   0.8528411786
	    H     2.3749600332   2.2674243594  -0.1093128384
	    H     0.5861109791   3.3184323052  -1.4764471716
	    H    -1.5583094323   2.1242021154  -1.8690310461
	    H    -1.9307946511  -0.1173599588  -0.8841260920
	    N    -1.0278620455  -2.3937923605   0.0397822273
	    N     0.2416712878  -1.7946022378   1.8626399549
	    H     0.1484786431  -2.7191726061   2.2699005171
	    H     0.6156376004  -1.0610366019   2.4534943434
	    H    -1.6737504368  -2.9774832749   0.5609614493
	    H    -1.1888641015  -2.3308106658  -0.9896114021
			--------------------------
			 OPTKING Finished Execution 
			--------------------------

    Structure for next step:
    Molecular point group: c1
    Full point group: C1

    Geometry (in Angstrom), charge = 1, multiplicity = 1:

    C            0.002361667815    -0.182175204718     0.066433244891
    C            1.218904945412     0.497022215115     0.290006294236
    C            1.417964803512     1.756279079996    -0.265663548724
    C            0.411245742495     2.342768463769    -1.041477383618
    C           -0.794908817371     1.669287326854    -1.269897729502
    C           -1.001282821443     0.404351629619    -0.728076919534
    C           -0.236583654269    -1.499998464540     0.653552057844
    H            2.018146155392     0.024878774611     0.855180456420
    H            2.358597136853     2.275254255702    -0.106973560495
    H            0.569748082753     3.326262201580    -1.474107893715
    H           -1.574672328616     2.132032011733    -1.866691768195
    H           -1.947157547370    -0.109530062427    -0.881786814126
    N           -1.044224941788    -2.385962464126     0.042121505210
    N            0.225308391492    -1.786772341470     1.864979232816
    H            0.132115746793    -2.711342709706     2.272239794978
    H            0.599274704118    -1.053206705523     2.455833621236
    H           -1.690113333101    -2.969653378517     0.563300727168
    H           -1.205226997822    -2.322980769404    -0.987272124249

gradient() will perform analytic gradient computation.

*** tstart() called on computer03
*** at Fri Aug 11 21:49:10 2017

   => Loading Basis Set <=

    Name: 6-31G*
    Role: ORBITAL
    Keyword: BASIS
    atoms 1-7         entry C          line   102 file /home/raimis/opt/miniconda3/envs/htmd/share/psi4/basis/6-31gs.gbs 
    atoms 8-12, 15-18 entry H          line    35 file /home/raimis/opt/miniconda3/envs/htmd/share/psi4/basis/6-31gs.gbs 
    atoms 13-14       entry N          line   119 file /home/raimis/opt/miniconda3/envs/htmd/share/psi4/basis/6-31gs.gbs 


         ---------------------------------------------------------
                                   SCF
            by Justin Turney, Rob Parrish, and Andy Simmonett
                              RKS Reference
                        8 Threads,   1907 MiB Core
         ---------------------------------------------------------

  ==> Geometry <==

    Molecular point group: c1
    Full point group: C1

    Geometry (in Angstrom), charge = 1, multiplicity = 1:

       Center              X                  Y                   Z               Mass       
    ------------   -----------------  -----------------  -----------------  -----------------
           C          0.002361667815    -0.182175204718     0.066433244891    12.000000000000
           C          1.218904945412     0.497022215115     0.290006294236    12.000000000000
           C          1.417964803512     1.756279079996    -0.265663548724    12.000000000000
           C          0.411245742495     2.342768463769    -1.041477383618    12.000000000000
           C         -0.794908817371     1.669287326854    -1.269897729502    12.000000000000
           C         -1.001282821443     0.404351629619    -0.728076919534    12.000000000000
           C         -0.236583654269    -1.499998464540     0.653552057844    12.000000000000
           H          2.018146155392     0.024878774611     0.855180456420     1.007825032070
           H          2.358597136853     2.275254255702    -0.106973560495     1.007825032070
           H          0.569748082753     3.326262201580    -1.474107893715     1.007825032070
           H         -1.574672328616     2.132032011733    -1.866691768195     1.007825032070
           H         -1.947157547370    -0.109530062427    -0.881786814126     1.007825032070
           N         -1.044224941788    -2.385962464126     0.042121505210    14.003074004780
           N          0.225308391492    -1.786772341470     1.864979232816    14.003074004780
           H          0.132115746793    -2.711342709706     2.272239794978     1.007825032070
           H          0.599274704118    -1.053206705523     2.455833621236     1.007825032070
           H         -1.690113333101    -2.969653378517     0.563300727168     1.007825032070
           H         -1.205226997822    -2.322980769404    -0.987272124249     1.007825032070

  Running in c1 symmetry.

  Rotational constants: A =      0.12129  B =      0.03973  C =      0.03112 [cm^-1]
  Rotational constants: A =   3636.04243  B =   1191.07751  C =    932.87383 [MHz]
  Nuclear repulsion =  416.378591381113949

  Charge       = 1
  Multiplicity = 1
  Electrons    = 64
  Nalpha       = 32
  Nbeta        = 32

  ==> Algorithm <==

  SCF Algorithm Type is DF.
  DIIS enabled.
  MOM disabled.
  Fractional occupation disabled.
  Guess Type is READ.
  Energy threshold   = 1.00e-08
  Density threshold  = 1.00e-08
  Integral threshold = 0.00e+00

  ==> Primary Basis <==

  Basis Set: 6-31G*
    Blend: 6-31G*
    Number of shells: 72
    Number of basis function: 153
    Number of Cartesian functions: 153
    Spherical Harmonics?: false
    Max angular momentum: 2

  ==> DFT Potential <==

   => B3LYP Composite Functional <= 

    B3LYP Hybrid-GGA Exchange-Correlation Functional (VWN1-RPA)

    P.J. Stephens et. al., J. Phys. Chem., 98, 11623-11627, 1994

    Points   =           5000
    Deriv    =              1
    GGA      =           TRUE
    Meta     =          FALSE

    X_LRC        =          FALSE
    X_Hybrid     =           TRUE
    X_Alpha      =   2.000000E-01
    X_Omega      =   0.000000E+00
    C_LRC        =          FALSE
    C_Hybrid     =          FALSE
    C_Alpha      =   0.000000E+00
    C_Omega      =   0.000000E+00

   => Exchange Functionals <=

    0.8000    B3_X
    0.2000      HF 

   => Correlation Functionals <=

    0.1900 VWN3RPA_C
    0.8100   LYP_C

   => Molecular Quadrature <=

    Radial Scheme    =       TREUTLER
    Pruning Scheme   =           FLAT
    Nuclear Scheme   =       TREUTLER

    BS radius alpha  =              1
    Pruning alpha    =              1
    Radial Points    =             75
    Spherical Points =            302
    Total Points     =         396987
    Total Blocks     =            336
    Max Points       =           4869
    Max Functions    =            150

   => -D3ZERO: Empirical Dispersion <=

    Grimme's -D3 (zero-damping) Dispersion Correction
    Grimme S.; Antony J.; Ehrlich S.; Krieg H. (2010), J. Chem. Phys., 132: 154104

        S6 =   1.000000E+00
        S8 =   1.703000E+00
       SR6 =   1.261000E+00
    ALPHA6 =   1.400000E+01

   => Loading Basis Set <=

    Name: (6-31G* AUX)
    Role: JKFIT
    Keyword: DF_BASIS_SCF
    atoms 1-7         entry C          line   120 file /home/raimis/opt/miniconda3/envs/htmd/share/psi4/basis/cc-pvdz-jkfit.gbs 
    atoms 8-12, 15-18 entry H          line    50 file /home/raimis/opt/miniconda3/envs/htmd/share/psi4/basis/cc-pvdz-jkfit.gbs 
    atoms 13-14       entry N          line   170 file /home/raimis/opt/miniconda3/envs/htmd/share/psi4/basis/cc-pvdz-jkfit.gbs 

  Reading orbitals from file 180, no projection.

  ==> Pre-Iterations <==

   -------------------------------------------------------
    Irrep   Nso     Nmo     Nalpha   Nbeta   Ndocc  Nsocc
   -------------------------------------------------------
     A        153     153       0       0       0       0
   -------------------------------------------------------
    Total     153     153      32      32      32       0
   -------------------------------------------------------

  ==> Integral Setup <==

  ==> DFJK: Density-Fitted J/K Matrices <==

    J tasked:                  Yes
    K tasked:                  Yes
    wK tasked:                  No
    OpenMP threads:              8
    Integrals threads:           8
    Memory (MB):              1430
    Algorithm:                Core
    Integral Cache:           NONE
    Schwarz Cutoff:          1E-12
    Fitting Condition:       1E-12

   => Auxiliary Basis Set <=

  Basis Set: (6-31G* AUX)
    Blend: CC-PVDZ-JKFIT
    Number of shells: 297
    Number of basis function: 954
    Number of Cartesian functions: 954
    Spherical Harmonics?: false
    Max angular momentum: 3

  Minimum eigenvalue in the overlap matrix is 4.8999713476E-04.
  Using Symmetric Orthogonalization.

  SCF Guess: Orbitals guess was supplied from a previous computation.

  ==> Iterations <==

                           Total Energy        Delta E     RMS |[F,P]|

   @DF-RKS iter   0:  -381.42150895143675   -3.81422e+02   1.79244e-03 
   @DF-RKS iter   1:  -381.46396905727477   -4.24601e-02   2.89854e-04 
   @DF-RKS iter   2:  -381.46356245767413    4.06600e-04   4.59804e-04 DIIS
   @DF-RKS iter   3:  -381.46449233916439   -9.29881e-04   8.38511e-05 DIIS
   @DF-RKS iter   4:  -381.46450689245631   -1.45533e-05   4.55013e-05 DIIS
   @DF-RKS iter   5:  -381.46451262127118   -5.72881e-06   1.26385e-05 DIIS
   @DF-RKS iter   6:  -381.46451304699463   -4.25723e-07   5.09064e-06 DIIS
   @DF-RKS iter   7:  -381.46451312167295   -7.46783e-08   1.34150e-06 DIIS
   @DF-RKS iter   8:  -381.46451312684184   -5.16889e-09   3.76638e-07 DIIS
   @DF-RKS iter   9:  -381.46451312727822   -4.36387e-10   9.28989e-08 DIIS
   @DF-RKS iter  10:  -381.46451312731710   -3.88809e-11   5.31037e-08 DIIS
   @DF-RKS iter  11:  -381.46451312732717   -1.00613e-11   1.08014e-08 DIIS
   @DF-RKS iter  12:  -381.46451312732654    6.25278e-13   3.31046e-09 DIIS

  ==> Post-Iterations <==

    Orbital Energies (a.u.)
    -----------------------

    Doubly Occupied:                                                      

       1A    -14.569326     2A    -14.561408     3A    -10.495393  
       4A    -10.373451     5A    -10.358272     6A    -10.358031  
       7A    -10.346630     8A    -10.342429     9A    -10.342343  
      10A     -1.178215    11A     -1.083778    12A     -1.014978  
      13A     -0.926377    14A     -0.903657    15A     -0.841981  
      16A     -0.780461    17A     -0.770941    18A     -0.739061  
      19A     -0.729954    20A     -0.686903    21A     -0.670580  
      22A     -0.627730    23A     -0.611654    24A     -0.583862  
      25A     -0.580056    26A     -0.567844    27A     -0.519153  
      28A     -0.507236    29A     -0.499450    30A     -0.469092  
      31A     -0.414307    32A     -0.407382  

    Virtual:                                                              

      33A     -0.227775    34A     -0.158281    35A     -0.129302  
      36A     -0.104449    37A     -0.072422    38A     -0.056745  
      39A     -0.038514    40A     -0.031832    41A      0.006188  
      42A      0.014915    43A      0.020448    44A      0.053239  
      45A      0.060069    46A      0.086591    47A      0.127039  
      48A      0.136597    49A      0.155709    50A      0.158346  
      51A      0.205748    52A      0.238152    53A      0.297629  
      54A      0.353390    55A      0.357901    56A      0.378903  
      57A      0.388974    58A      0.397598    59A      0.419136  
      60A      0.420639    61A      0.440185    62A      0.447566  
      63A      0.452861    64A      0.469691    65A      0.473369  
      66A      0.476104    67A      0.487179    68A      0.513578  
      69A      0.526227    70A      0.532256    71A      0.554115  
      72A      0.587527    73A      0.607776    74A      0.655963  
      75A      0.668452    76A      0.682324    77A      0.695344  
      78A      0.698985    79A      0.711721    80A      0.714589  
      81A      0.726193    82A      0.762587    83A      0.772929  
      84A      0.783697    85A      0.807912    86A      0.816159  
      87A      0.853293    88A      0.939758    89A      0.950164  
      90A      0.983776    91A      0.996599    92A      1.026139  
      93A      1.069379    94A      1.086463    95A      1.103343  
      96A      1.143796    97A      1.212923    98A      1.273857  
      99A      1.276059   100A      1.302140   101A      1.316335  
     102A      1.340585   103A      1.354851   104A      1.360984  
     105A      1.449778   106A      1.475630   107A      1.537417  
     108A      1.595615   109A      1.622870   110A      1.651706  
     111A      1.657769   112A      1.736624   113A      1.748831  
     114A      1.799938   115A      1.816341   116A      1.829554  
     117A      1.895824   118A      1.908011   119A      1.947834  
     120A      1.972768   121A      1.992331   122A      2.000335  
     123A      2.025523   124A      2.048803   125A      2.120554  
     126A      2.129756   127A      2.150799   128A      2.196362  
     129A      2.230761   130A      2.305659   131A      2.344587  
     132A      2.366023   133A      2.444163   134A      2.450672  
     135A      2.485113   136A      2.506940   137A      2.543279  
     138A      2.585339   139A      2.598081   140A      2.627684  
     141A      2.733120   142A      2.852198   143A      2.981791  
     144A      3.254402   145A      3.632174   146A      3.651452  
     147A      3.909003   148A      3.944163   149A      3.961755  
     150A      4.046472   151A      4.170841   152A      4.254923  
     153A      4.544594  

    Final Occupation by Irrep:
              A 
    DOCC [    32 ]

  Energy converged.

  @DF-RKS Final Energy:  -381.46451312732654

   => Energetics <=

    Nuclear Repulsion Energy =            416.3785913811139494
    One-Electron Energy =               -1328.0277192685368846
    Two-Electron Energy =                 574.5831123422011615
    DFT Exchange-Correlation Energy =     -44.3865098521046804
    Empirical Dispersion Energy =          -0.0119877300000000
    PCM Polarization Energy =               0.0000000000000000
    EFP Energy =                            0.0000000000000000
    Total Energy =                       -381.4645131273264838



Properties will be evaluated at   0.000000,   0.000000,   0.000000 Bohr

Properties computed using the SCF density matrix

  Nuclear Dipole Moment: (a.u.)
     X:    -0.6907      Y:    -1.3081      Z:     0.7723

  Electronic Dipole Moment: (a.u.)
     X:     0.1464      Y:    -0.4847      Z:     0.2145

  Dipole Moment: (a.u.)
     X:    -0.5443      Y:    -1.7928      Z:     0.9868     Total:     2.1176

  Dipole Moment: (Debye)
     X:    -1.3833      Y:    -4.5569      Z:     2.5081     Total:     5.3824


*** tstop() called on computer03 at Fri Aug 11 21:50:02 2017
Module time:
	user time   =      83.30 seconds =       1.39 minutes
	system time =       1.14 seconds =       0.02 minutes
	total time  =         52 seconds =       0.87 minutes
Total time:
	user time   =     198.31 seconds =       3.31 minutes
	system time =       2.89 seconds =       0.05 minutes
	total time  =        118 seconds =       1.97 minutes

*** tstart() called on computer03
*** at Fri Aug 11 21:50:02 2017


         ------------------------------------------------------------
                                   SCF GRAD                          
                          Rob Parrish, Justin Turney,                
                       Andy Simmonett, and Alex Sokolov              
         ------------------------------------------------------------

  ==> Geometry <==

    Molecular point group: c1
    Full point group: C1

    Geometry (in Angstrom), charge = 1, multiplicity = 1:

       Center              X                  Y                   Z               Mass       
    ------------   -----------------  -----------------  -----------------  -----------------
           C          0.002361667815    -0.182175204718     0.066433244891    12.000000000000
           C          1.218904945412     0.497022215115     0.290006294236    12.000000000000
           C          1.417964803512     1.756279079996    -0.265663548724    12.000000000000
           C          0.411245742495     2.342768463769    -1.041477383618    12.000000000000
           C         -0.794908817371     1.669287326854    -1.269897729502    12.000000000000
           C         -1.001282821443     0.404351629619    -0.728076919534    12.000000000000
           C         -0.236583654269    -1.499998464540     0.653552057844    12.000000000000
           H          2.018146155392     0.024878774611     0.855180456420     1.007825032070
           H          2.358597136853     2.275254255702    -0.106973560495     1.007825032070
           H          0.569748082753     3.326262201580    -1.474107893715     1.007825032070
           H         -1.574672328616     2.132032011733    -1.866691768195     1.007825032070
           H         -1.947157547370    -0.109530062427    -0.881786814126     1.007825032070
           N         -1.044224941788    -2.385962464126     0.042121505210    14.003074004780
           N          0.225308391492    -1.786772341470     1.864979232816    14.003074004780
           H          0.132115746793    -2.711342709706     2.272239794978     1.007825032070
           H          0.599274704118    -1.053206705523     2.455833621236     1.007825032070
           H         -1.690113333101    -2.969653378517     0.563300727168     1.007825032070
           H         -1.205226997822    -2.322980769404    -0.987272124249     1.007825032070

  Nuclear repulsion =  416.378591381113949

  ==> Basis Set <==

  Basis Set: 6-31G*
    Blend: 6-31G*
    Number of shells: 72
    Number of basis function: 153
    Number of Cartesian functions: 153
    Spherical Harmonics?: false
    Max angular momentum: 2

  ==> DFJKGrad: Density-Fitted SCF Gradients <==

    Gradient:                    1
    J tasked:                  Yes
    K tasked:                  Yes
    wK tasked:                  No
    OpenMP threads:              8
    Integrals threads:           8
    Memory (MB):              1430
    Schwarz Cutoff:          0E+00
    Fitting Condition:       1E-12

   => Auxiliary Basis Set <=

  Basis Set: (6-31G* AUX)
    Blend: CC-PVDZ-JKFIT
    Number of shells: 297
    Number of basis function: 954
    Number of Cartesian functions: 954
    Spherical Harmonics?: false
    Max angular momentum: 3

  ==> DFT Potential <==

   => B3LYP Composite Functional <= 

    B3LYP Hybrid-GGA Exchange-Correlation Functional (VWN1-RPA)

    P.J. Stephens et. al., J. Phys. Chem., 98, 11623-11627, 1994

    Points   =           5000
    Deriv    =              1
    GGA      =           TRUE
    Meta     =          FALSE

    X_LRC        =          FALSE
    X_Hybrid     =           TRUE
    X_Alpha      =   2.000000E-01
    X_Omega      =   0.000000E+00
    C_LRC        =          FALSE
    C_Hybrid     =          FALSE
    C_Alpha      =   0.000000E+00
    C_Omega      =   0.000000E+00

   => Exchange Functionals <=

    0.8000    B3_X
    0.2000      HF 

   => Correlation Functionals <=

    0.1900 VWN3RPA_C
    0.8100   LYP_C

   => Molecular Quadrature <=

    Radial Scheme    =       TREUTLER
    Pruning Scheme   =           FLAT
    Nuclear Scheme   =       TREUTLER

    BS radius alpha  =              1
    Pruning alpha    =              1
    Radial Points    =             75
    Spherical Points =            302
    Total Points     =         396987
    Total Blocks     =            336
    Max Points       =           4869
    Max Functions    =            150


  -Total Gradient:
     Atom            X                  Y                   Z
    ------   -----------------  -----------------  -----------------
       1       -0.008100944673     0.004589128346     0.004132868843
       2        0.000751660661     0.000072023693    -0.000004577189
       3        0.000381621633     0.000420801554    -0.000364843510
       4        0.000728963496     0.000534195743     0.000203176277
       5       -0.000229446407     0.000004786590     0.000146504251
       6       -0.000074733846    -0.001290174049     0.000747906783
       7        0.016388723965    -0.002989906009    -0.000572827972
       8        0.000322451168     0.000297582465     0.000054484248
       9        0.000555724470     0.000264603471     0.000086075549
      10        0.000214445505     0.000177798553    -0.000121451899
      11       -0.000301135581    -0.000113845265    -0.000140251598
      12       -0.000752880389    -0.001716093911    -0.000248019938
      13        0.000294037613    -0.004999458260     0.023295889912
      14       -0.000383164901     0.000556017660    -0.002777251115
      15       -0.000451530391    -0.000413645721     0.000625956259
      16       -0.000589805498     0.001015432358     0.000895126268
      17       -0.006326082721     0.005000726915     0.000165584231
      18       -0.002432291839    -0.001425584340    -0.026120415358


*** tstop() called on computer03 at Fri Aug 11 21:50:12 2017
Module time:
	user time   =      23.29 seconds =       0.39 minutes
	system time =       0.33 seconds =       0.01 minutes
	total time  =         10 seconds =       0.17 minutes
Total time:
	user time   =     221.68 seconds =       3.69 minutes
	system time =       3.22 seconds =       0.05 minutes
	total time  =        128 seconds =       2.13 minutes

			-----------------------------------------
			 OPTKING 2.0: for geometry optimizations 
			  - R.A. King,  Bethel University        
			-----------------------------------------
	At level 1: Red. Int., RFO, no backsteps, dynamic trust

	Previous internal coordinate definitions found.
	---Fragment 1 Geometry and Gradient---
	 C           0.0044629054       -0.3442612451        0.1255406390
	 C           2.3033965288        0.9392358685        0.5480324729
	 C           2.6795651447        3.3188864741       -0.5020313506
	 C           0.7771418266        4.4271907893       -1.9681070286
	 C          -1.5021599654        3.1544958849       -2.3997589255
	 C          -1.8921503141        0.7641138414       -1.3758659816
	 C          -0.4470783141       -2.8345862977        1.2350344029
	 H           3.8137435298        0.0470140705        1.6160568568
	 H           4.4571026465        4.2996074260       -0.2021507328
	 H           1.0766678411        6.2857246072       -2.7856602094
	 H          -2.9756994501        4.0289566087       -3.5275362164
	 H          -3.6795945021       -0.2069818213       -1.6663355863
	 N          -1.9732991611       -4.5088156205        0.0795981092
	 N           0.4257711554       -3.3765103872        3.5242999935
	 H           0.2496625793       -5.1236951737        4.2939109208
	 H           1.1324650692       -1.9902722348        4.6408529721
	 H          -3.1938513331       -5.6118315950        1.0644841048
	 H          -2.2775489538       -4.3897974661       -1.8656739335
	            -0.0081009447        0.0045891283        0.0041328688
	             0.0007516607        0.0000720237       -0.0000045772
	             0.0003816216        0.0004208016       -0.0003648435
	             0.0007289635        0.0005341957        0.0002031763
	            -0.0002294464        0.0000047866        0.0001465043
	            -0.0000747338       -0.0012901740        0.0007479068
	             0.0163887240       -0.0029899060       -0.0005728280
	             0.0003224512        0.0002975825        0.0000544842
	             0.0005557245        0.0002646035        0.0000860755
	             0.0002144455        0.0001777986       -0.0001214519
	            -0.0003011356       -0.0001138453       -0.0001402516
	            -0.0007528804       -0.0017160939       -0.0002480199
	             0.0002940376       -0.0049994583        0.0232958899
	            -0.0003831649        0.0005560177       -0.0027772511
	            -0.0004515304       -0.0004136457        0.0006259563
	            -0.0005898055        0.0010154324        0.0008951263
	            -0.0063260827        0.0050007269        0.0001655842
	            -0.0024322918       -0.0014255843       -0.0261204154

	---Fragment 1 Intrafragment Coordinates---
	 - Coordinate -           - BOHR/RAD -       - ANG/DEG -
	 R(1,2)           =         2.666638	       1.411124
	 R(1,6)           =         2.660800	       1.408035
	 R(1,7)           =         2.763437	       1.462348
	 R(2,3)           =         2.628093	       1.390727
	 R(2,8)           =         2.053749	       1.086797
	 R(3,4)           =         2.645171	       1.399764
	 R(3,9)           =         2.052165	       1.085959
	 R(4,5)           =         2.645996	       1.400201
	 R(4,10)          =         2.052378	       1.086072
	 R(5,6)           =         2.629520	       1.391482
	 R(5,11)          =         2.051312	       1.085508
	 R(6,12)          =         2.054837	       1.087373
	 R(7,13)          =         2.543114	       1.345758
	 R(7,14)          =         2.509240	       1.327833
	 R(13,17)         =         1.917392	       1.014640
	 R(13,18)         =         1.972515	       1.043810
	 R(14,15)         =         1.917282	       1.014582
	 R(14,16)         =         1.915140	       1.013449
	 B(1,2,3)         =         2.089678	     119.729722
	 B(1,2,8)         =         2.102839	     120.483826
	 B(1,6,5)         =         2.085957	     119.516507
	 B(1,6,12)        =         2.097801	     120.195120
	 B(1,7,13)        =         2.104730	     120.592134
	 B(1,7,14)        =         2.099115	     120.270404
	 B(2,1,6)         =         2.098342	     120.226163
	 B(2,1,7)         =         2.107149	     120.730757
	 B(2,3,4)         =         2.091962	     119.860578
	 B(2,3,9)         =         2.092446	     119.888343
	 B(3,2,8)         =         2.089653	     119.728293
	 B(3,4,5)         =         2.104147	     120.558737
	 B(3,4,10)        =         2.088904	     119.685408
	 B(4,3,9)         =         2.098692	     120.246198
	 B(4,5,6)         =         2.096108	     120.098163
	 B(4,5,11)        =         2.098366	     120.227530
	 B(5,4,10)        =         2.090119	     119.755018
	 B(5,6,12)        =         2.098535	     120.237189
	 B(6,1,7)         =         2.077694	     119.043070
	 B(6,5,11)        =         2.088703	     119.673892
	 B(7,13,17)       =         2.126305	     121.828312
	 B(7,13,18)       =         2.095445	     120.060177
	 B(7,14,15)       =         2.130667	     122.078252
	 B(7,14,16)       =         2.098946	     120.260744
	 B(13,7,14)       =         2.072691	     118.756466
	 B(15,14,16)      =         2.048209	     117.353726
	 B(17,13,18)      =         2.029837	     116.301088
	 D(1,2,3,4)       =         0.001126	       0.064508
	 D(1,2,3,9)       =        -3.126476	    -179.133856
	 D(1,6,5,4)       =         0.016743	       0.959328
	 D(1,6,5,11)      =        -3.120771	    -178.806995
	*D(1,7,13,17)     =        -2.443461	    -139.999998
	 D(1,7,13,18)     =         0.420788	      24.109364
	 D(1,7,14,15)     =        -3.065587	    -175.645180
	 D(1,7,14,16)     =         0.190080	      10.890804
	 D(2,1,6,5)       =        -0.021367	      -1.224230
	 D(2,1,6,12)      =        -3.117660	    -178.628747
	 D(2,1,7,13)      =        -2.632706	    -150.842938
	 D(2,1,7,14)      =         0.634084	      36.330312
	 D(2,3,4,5)       =        -0.005759	      -0.329979
	 D(2,3,4,10)      =        -3.141529	    -179.996362
	 D(3,2,1,6)       =         0.012436	       0.712551
	 D(3,2,1,7)       =        -3.128516	    -179.250767
	 D(3,4,5,6)       =        -0.003283	      -0.188090
	 D(3,4,5,11)      =         3.134209	     179.576930
	 D(4,3,2,8)       =         3.094554	     177.304871
	 D(4,5,6,12)      =         3.113017	     178.362735
	 D(5,4,3,9)       =         3.121792	     178.865480
	 D(5,6,1,7)       =         3.119596	     178.739703
	 D(6,1,2,8)       =        -3.080622	    -176.506614
	 D(6,1,7,13)      =         0.509519	      29.193316
	 D(6,1,7,14)      =        -2.506876	    -143.633434
	 D(6,5,4,10)      =         3.132483	     179.478061
	 D(7,1,2,8)       =         0.061611	       3.530068
	 D(7,1,6,12)      =         0.023303	       1.335186
	 D(8,2,3,9)       =        -0.033048	      -1.893493
	 D(9,3,4,10)      =        -0.013978	      -0.800902
	 D(10,4,5,11)     =        -0.013211	      -0.756919
	 D(11,5,6,12)     =        -0.024497	      -1.403589
	 D(13,7,14,15)    =         0.198926	      11.397630
	 D(13,7,14,16)    =        -2.828592	    -162.066386
	 D(14,7,13,17)    =         0.574803	      32.933804
	 D(14,7,13,18)    =        -2.844133	    -162.956834

	Current energy   :      -381.4645131273

	Energy change for the previous step:
		Projected    :        -0.0103343460
		Actual       :        -0.0031514486

	Performing BFGS update.
	Previous computed or guess Hessian on step 1.
	Steps to be used in Hessian update: 1
	Taking RFO optimization step.
	Going to follow RFO solution 1.
	Using RFO vector 1.
	Norm of target step-size    0.24653
	Projected energy change by RFO approximation:        -0.0023812587

	Back-transformation to cartesian coordinates...
	Could not converge backtransformation.
	Using first guess instead.

	Back-transformation to cartesian coordinates to adjust frozen coordinates...
	Successfully converged to displaced geometry.

	--- Internal Coordinate Step in ANG or DEG, aJ/ANG or AJ/DEG ---
	 ---------------------------------------------------------------------------
	   Coordinate                Previous        Force       Change         New 
	   ----------                --------       ------       ------       ------
	    1 R(1,2)          =      1.411124    -0.013939    -0.001287     1.409837
	    2 R(1,6)          =      1.408035     0.011636     0.001497     1.409532
	    3 R(1,7)          =      1.462348    -0.000530    -0.000530     1.461818
	    4 R(2,3)          =      1.390727    -0.006025    -0.000817     1.389910
	    5 R(2,8)          =      1.086797    -0.001120    -0.000083     1.086714
	    6 R(3,4)          =      1.399764    -0.003131    -0.000205     1.399559
	    7 R(3,9)          =      1.085959    -0.005116    -0.000719     1.085240
	    8 R(4,5)          =      1.400201    -0.013888    -0.001510     1.398691
	    9 R(4,10)         =      1.086072    -0.001990    -0.000265     1.085806
	   10 R(5,6)          =      1.391482    -0.005921    -0.000666     1.390816
	   11 R(5,11)         =      1.085508    -0.002020    -0.000273     1.085234
	   12 R(6,12)         =      1.087373    -0.012361    -0.001932     1.085441
	   13 R(7,13)         =      1.345758    -0.059514    -0.003020     1.342737
	   14 R(7,14)         =      1.327833     0.015592     0.001268     1.329101
	   15 R(13,17)        =      1.014640    -0.010170    -0.000897     1.013743
	   16 R(13,18)        =      1.043810    -0.214611    -0.021378     1.022433
	   17 R(14,15)        =      1.014582    -0.005510     0.000166     1.014748
	   18 R(14,16)        =      1.013449    -0.008567    -0.000792     1.012656
	   19 B(1,2,3)        =    119.729722     0.000022     0.062001   119.791723
	   20 B(1,2,8)        =    120.483826    -0.000044    -0.156331   120.327494
	   21 B(1,6,5)        =    119.516507     0.000046     0.130122   119.646629
	   22 B(1,6,12)       =    120.195120     0.000050     0.156614   120.351734
	   23 B(1,7,13)       =    120.592134     0.000317     0.973985   121.566119
	   24 B(1,7,14)       =    120.270404    -0.000103    -0.111338   120.159066
	   25 B(2,1,6)        =    120.226163    -0.000077    -0.176460   120.049703
	   26 B(2,1,7)        =    120.730757    -0.000228    -0.483450   120.247307
	   27 B(2,3,4)        =    119.860578     0.000035     0.057182   119.917760
	   28 B(2,3,9)        =    119.888343    -0.000015    -0.015105   119.873238
	   29 B(3,2,8)        =    119.728293     0.000022     0.099711   119.828004
	   30 B(3,4,5)        =    120.558737    -0.000006    -0.016386   120.542351
	   31 B(3,4,10)       =    119.685408     0.000015     0.051974   119.737382
	   32 B(4,3,9)        =    120.246198    -0.000020    -0.042543   120.203655
	   33 B(4,5,6)        =    120.098163    -0.000019    -0.051908   120.046255
	   34 B(4,5,11)       =    120.227530    -0.000010    -0.050437   120.177093
	   35 B(5,4,10)       =    119.755018    -0.000009    -0.034766   119.720252
	   36 B(5,6,12)       =    120.237189    -0.000096    -0.311095   119.926094
	   37 B(6,1,7)        =    119.043070     0.000305     0.651616   119.694687
	   38 B(6,5,11)       =    119.673892     0.000029     0.100105   119.773998
	   39 B(7,13,17)      =    121.828312     0.000073    -0.145869   121.682443
	   40 B(7,13,18)      =    120.060177    -0.000176    -2.159196   117.900981
	   41 B(7,14,15)      =    122.078252    -0.000021    -0.113643   121.964609
	   42 B(7,14,16)      =    120.260744     0.000026     0.213631   120.474375
	   43 B(13,7,14)      =    118.756466    -0.000197    -0.565220   118.191246
	   44 B(15,14,16)     =    117.353726     0.000004     0.075739   117.429465
	   45 B(17,13,18)     =    116.301088     0.000036    -0.686868   115.614220
	   46 D(1,2,3,4)      =      0.064508    -0.000001    -0.115525    -0.051017
	   47 D(1,2,3,9)      =   -179.133856    -0.000001    -0.077765  -179.211621
	   48 D(1,6,5,4)      =      0.959328    -0.000002    -0.216846     0.742482
	   49 D(1,6,5,11)     =   -178.806995     0.000001     0.141010  -178.665986
	   50 *D(1,7,13,17)   =   -139.999998     0.000000    -0.000000  -139.999998
	   51 D(1,7,13,18)    =     24.109364    -0.000065    -9.735192    14.374171
	   52 D(1,7,14,15)    =   -175.645180     0.000029     3.022141  -172.623039
	   53 D(1,7,14,16)    =     10.890804     0.000006     0.763630    11.654434
	   54 D(2,1,6,5)      =     -1.224230     0.000003     0.307201    -0.917030
	   55 D(2,1,6,12)     =   -178.628747     0.000008     0.874365  -177.754382
	   56 D(2,1,7,13)     =   -150.842938     0.000018     1.763367  -149.079571
	   57 D(2,1,7,14)     =     36.330312    -0.000016    -2.025241    34.305071
	   58 D(2,3,4,5)      =     -0.329979     0.000001     0.205558    -0.124421
	   59 D(2,3,4,10)     =   -179.996362    -0.000001    -0.084052  -180.080414
	   60 D(3,2,1,6)      =      0.712551    -0.000002    -0.141566     0.570984
	   61 D(3,2,1,7)      =   -179.250767     0.000005     0.873093  -178.377674
	   62 D(3,4,5,6)      =     -0.188090    -0.000000    -0.037353    -0.225443
	   63 D(3,4,5,11)     =    179.576930    -0.000003    -0.396310   179.180620
	   64 D(4,3,2,8)      =    177.304871    -0.000000     0.010981   177.315852
	   65 D(4,5,6,12)     =    178.362735    -0.000007    -0.769275   177.593460
	   66 D(5,4,3,9)      =    178.865480     0.000001     0.167898   179.033379
	   67 D(5,6,1,7)      =    178.739703    -0.000004    -0.702242   178.037461
	   68 D(6,1,2,8)      =   -176.506614    -0.000003    -0.275932  -176.782546
	   69 D(6,1,7,13)     =     29.193316     0.000025     2.774719    31.968035
	   70 D(6,1,7,14)     =   -143.633434    -0.000009    -1.013888  -144.647322
	   71 D(6,5,4,10)     =    179.478061     0.000002     0.252496   179.730557
	   72 D(7,1,2,8)      =      3.530068     0.000004     0.738727     4.268795
	   73 D(7,1,6,12)     =      1.335186     0.000002    -0.135078     1.200109
	   74 D(8,2,3,9)      =     -1.893493     0.000000     0.048741    -1.844752
	   75 D(9,3,4,10)     =     -0.800902    -0.000001    -0.121712    -0.922614
	   76 D(10,4,5,11)    =     -0.756919    -0.000001    -0.106460    -0.863380
	   77 D(11,5,6,12)    =     -1.403589    -0.000004    -0.411419    -1.815008
	   78 D(13,7,14,15)   =     11.397630    -0.000013    -0.748818    10.648812
	   79 D(13,7,14,16)   =   -162.066386    -0.000036    -3.007329  -165.073716
	   80 D(14,7,13,17)   =     32.933804     0.000035     3.745919    36.679723
	   81 D(14,7,13,18)   =   -162.956834    -0.000030    -5.989273  -168.946107
	 ---------------------------------------------------------------------------
	Successfully symmetrized geometry.

  ==> Convergence Check <==

  Measures of convergence in internal coordinates in au.
  Criteria marked as inactive (o), active & met (*), and active & unmet ( ).
  ---------------------------------------------------------------------------------------------
   Step     Total Energy     Delta E     MAX Force     RMS Force      MAX Disp      RMS Disp   
  ---------------------------------------------------------------------------------------------
    Convergence Criteria    1.00e-06 *    3.00e-04 *             o    1.20e-03 *             o
  ---------------------------------------------------------------------------------------------
      2    -381.46451313   -3.15e-03      2.60e-02      3.23e-03 o    1.70e-01      2.72e-02 o  ~
  ---------------------------------------------------------------------------------------------

	Writing optimization data to binary file.
	Structure for next step:
	Cartesian Geometry (in Angstrom)
	    C    -0.0109061207  -0.1868130917   0.0549455447
	    C     1.2034744008   0.4889962606   0.2920181128
	    C     1.4111832710   1.7489385842  -0.2568452203
	    C     0.4157033885   2.3407665886  -1.0426734881
	    C    -0.7895764180   1.6734864907  -1.2842809901
	    C    -1.0056446398   0.4092734508  -0.7462757365
	    C    -0.2541364545  -1.4968478437   0.6562429079
	    H     1.9939050107   0.0122111417   0.8654664664
	    H     2.3504889082   2.2648867861  -0.0858255161
	    H     0.5805426235   3.3257084190  -1.4689283748
	    H    -1.5627287548   2.1434946944  -1.8834982820
	    H    -1.9565495612  -0.0903430089  -0.9023051152
	    N    -1.0177638690  -2.4186423105   0.0478749891
	    N     0.2283766206  -1.7779532731   1.8623397262
	    H     0.1718493126  -2.7099421692   2.2597246346
	    H     0.6115386311  -1.0444368761   2.4459604748
	    H    -1.6667373685  -2.9991901813   0.5669817083
	    H    -1.2435220455  -2.2770798030  -0.9392226492
			--------------------------
			 OPTKING Finished Execution 
			--------------------------

    Structure for next step:
    Molecular point group: c1
    Full point group: C1

    Geometry (in Angstrom), charge = 1, multiplicity = 1:

    C           -0.009753662490    -0.183368319202     0.057493340822
    C            1.204626858970     0.492441033075     0.294565908935
    C            1.412335729204     1.752383356714    -0.254297424166
    C            0.416855846723     2.344211361115    -1.040125691972
    C           -0.788423959825     1.676931263180    -1.281733194027
    C           -1.004492181576     0.412718223317    -0.743727940389
    C           -0.252983996260    -1.493403071247     0.658790704040
    H            1.995057468900     0.015655914209     0.868014262478
    H            2.351641366436     2.268331558579    -0.083277720009
    H            0.581695081695     3.329153191510    -1.466380578726
    H           -1.561576296581     2.146939466902    -1.880950485932
    H           -1.955397103023    -0.086898236452    -0.899757319093
    N           -1.016611410795    -2.415197537983     0.050422785196
    N            0.229529078827    -1.774508500592     1.864887522282
    H            0.173001770832    -2.706497396745     2.262272430727
    H            0.612691089337    -1.040992103591     2.448508270868
    H           -1.665584910254    -2.995745408795     0.569529504369
    H           -1.242369587323    -2.273635030540    -0.936674853065

gradient() will perform analytic gradient computation.

*** tstart() called on computer03
*** at Fri Aug 11 21:50:12 2017

   => Loading Basis Set <=

    Name: 6-31G*
    Role: ORBITAL
    Keyword: BASIS
    atoms 1-7         entry C          line   102 file /home/raimis/opt/miniconda3/envs/htmd/share/psi4/basis/6-31gs.gbs 
    atoms 8-12, 15-18 entry H          line    35 file /home/raimis/opt/miniconda3/envs/htmd/share/psi4/basis/6-31gs.gbs 
    atoms 13-14       entry N          line   119 file /home/raimis/opt/miniconda3/envs/htmd/share/psi4/basis/6-31gs.gbs 


         ---------------------------------------------------------
                                   SCF
            by Justin Turney, Rob Parrish, and Andy Simmonett
                              RKS Reference
                        8 Threads,   1907 MiB Core
         ---------------------------------------------------------

  ==> Geometry <==

    Molecular point group: c1
    Full point group: C1

    Geometry (in Angstrom), charge = 1, multiplicity = 1:

       Center              X                  Y                   Z               Mass       
    ------------   -----------------  -----------------  -----------------  -----------------
           C         -0.009753662490    -0.183368319202     0.057493340822    12.000000000000
           C          1.204626858970     0.492441033075     0.294565908935    12.000000000000
           C          1.412335729204     1.752383356714    -0.254297424166    12.000000000000
           C          0.416855846723     2.344211361115    -1.040125691972    12.000000000000
           C         -0.788423959825     1.676931263180    -1.281733194027    12.000000000000
           C         -1.004492181576     0.412718223317    -0.743727940389    12.000000000000
[...]
	            -0.0000038318       -0.0000123653       -0.0000062920
	             0.0000055949        0.0000067053        0.0000022819
	            -0.0000031532       -0.0000113170        0.0000010353
	             0.0000053988       -0.0000018125        0.0000274436
	             0.0049835639       -0.0009462881       -0.0043628476
	            -0.0000013401       -0.0000071621        0.0000034452
	             0.0000003372       -0.0000042065        0.0000014798
	            -0.0000009365       -0.0000021503        0.0000011347
	             0.0000001151       -0.0000065699       -0.0000009108
	             0.0000000030       -0.0000135873       -0.0000082270
	             0.0056680070       -0.0065274734        0.0032023604
	             0.0000516757       -0.0000146878       -0.0000088026
	             0.0000019803        0.0000023942        0.0000002419
	             0.0000018890        0.0000007394       -0.0000090946
	            -0.0059685379        0.0055388152       -0.0013179522
	            -0.0000134134       -0.0000123427        0.0000052879

	---Fragment 1 Intrafragment Coordinates---
	 - Coordinate -           - BOHR/RAD -       - ANG/DEG -
	 R(1,2)           =         2.663421	       1.409422
	 R(1,6)           =         2.662180	       1.408765
	 R(1,7)           =         2.762233	       1.461711
	 R(2,3)           =         2.626932	       1.390113
	 R(2,8)           =         2.053208	       1.086511
	 R(3,4)           =         2.643988	       1.399138
	 R(3,9)           =         2.050553	       1.085106
	 R(4,5)           =         2.642887	       1.398556
	 R(4,10)          =         2.051685	       1.085705
	 R(5,6)           =         2.628124	       1.390743
	 R(5,11)          =         2.050552	       1.085106
	 R(6,12)          =         2.052545	       1.086160
	 R(7,13)          =         2.533675	       1.340763
	 R(7,14)          =         2.511918	       1.329250
	 R(13,17)         =         1.917113	       1.014493
	 R(13,18)         =         1.913836	       1.012758
	 R(14,15)         =         1.915792	       1.013793
	 R(14,16)         =         1.912050	       1.011813
	 B(1,2,3)         =         2.090572	     119.780925
	 B(1,2,8)         =         2.100637	     120.357647
	 B(1,6,5)         =         2.089282	     119.707035
	 B(1,6,12)        =         2.104275	     120.566067
	 B(1,7,13)        =         2.116547	     121.269202
	 B(1,7,14)        =         2.097158	     120.158279
	 B(2,1,6)         =         2.094730	     120.019174
	 B(2,1,7)         =         2.097614	     120.184412
	 B(2,3,4)         =         2.093660	     119.957905
	 B(2,3,9)         =         2.091578	     119.838581
	 B(3,2,8)         =         2.090743	     119.790748
	 B(3,4,5)         =         2.103140	     120.501024
	 B(3,4,10)        =         2.090114	     119.754727
	 B(4,3,9)         =         2.097865	     120.198820
	 B(4,5,6)         =         2.094919	     120.030023
	 B(4,5,11)        =         2.097939	     120.203064
	 B(5,4,10)        =         2.089929	     119.744135
	 B(5,6,12)        =         2.088298	     119.650675
	 B(6,1,7)         =         2.090781	     119.792907
	 B(6,5,11)        =         2.090291	     119.764830
	 B(7,13,17)       =         2.111824	     120.998624
	 B(7,13,18)       =         2.054095	     117.690978
	 B(7,14,15)       =         2.129579	     122.015901
	 B(7,14,16)       =         2.102697	     120.475637
	 B(13,7,14)       =         2.068768	     118.531680
	 B(15,14,16)      =         2.050783	     117.501194
	 B(17,13,18)      =         2.000515	     114.621038
	 D(1,2,3,4)       =         0.003131	       0.179380
	 D(1,2,3,9)       =        -3.124736	    -179.034174
	 D(1,6,5,4)       =         0.011391	       0.652662
	 D(1,6,5,11)      =        -3.121057	    -178.823376
	*D(1,7,13,17)     =        -2.443461	    -139.999998
	 D(1,7,13,18)     =         0.170928	       9.793465
	 D(1,7,14,15)     =        -3.000741	    -171.929823
	 D(1,7,14,16)     =         0.158400	       9.075665
	 D(2,1,6,5)       =        -0.012446	      -0.713090
	 D(2,1,6,12)      =        -3.098438	    -177.527422
	 D(2,1,7,13)      =        -2.554983	    -146.389769
	 D(2,1,7,14)      =         0.627774	      35.968818
	 D(2,3,4,5)       =        -0.004217	      -0.241620
	 D(2,3,4,10)      =         3.139515	     179.880950
	 D(3,2,1,6)       =         0.005168	       0.296100
	 D(3,2,1,7)       =        -3.124510	    -179.021246
	 D(3,4,5,6)       =        -0.003121	      -0.178815
	 D(3,4,5,11)      =         3.129286	     179.294906
	 D(4,3,2,8)       =         3.091563	     177.133508
	 D(4,5,6,12)      =         3.097897	     177.496402
	 D(5,4,3,9)       =         3.123600	     178.969072
	 D(5,6,1,7)       =         3.117279	     178.606943
	 D(6,1,2,8)       =        -3.082958	    -176.640510
	 D(6,1,7,13)      =         0.598497	      34.291337
	 D(6,1,7,14)      =        -2.501931	    -143.350077
	 D(6,5,4,10)      =         3.136333	     179.698629
	 D(7,1,2,8)       =         0.070549	       4.042144
	 D(7,1,6,12)      =         0.031287	       1.792610
	 D(8,2,3,9)       =        -0.036304	      -2.080046
	 D(9,3,4,10)      =        -0.015854	      -0.908358
	 D(10,4,5,11)     =        -0.014445	      -0.827650
	 D(11,5,6,12)     =        -0.034551	      -1.979636
	 D(13,7,14,15)    =         0.180900	      10.364794
	 D(13,7,14,16)    =        -2.943144	    -168.629718
	 D(14,7,13,17)    =         0.657619	      37.678785
	 D(14,7,13,18)    =        -3.011177	    -172.527751

	Current energy   :      -381.4665148398

	Energy change for the previous step:
		Projected    :         0.0000002128
		Actual       :        -0.0000001715

	Performing BFGS update.
	Previous computed or guess Hessian on step 1.
	Steps to be used in Hessian update: 6 5
	Taking RFO optimization step.
	Going to follow RFO solution 1.
	Rejecting RFO root 1 because normalization gives large value.
	Using RFO vector 2.
	Norm of target step-size    0.00145
	Projected energy change by RFO approximation:         0.0000000546

	Back-transformation to cartesian coordinates...
	Successfully converged to displaced geometry.

	Back-transformation to cartesian coordinates to adjust frozen coordinates...
	Successfully converged to displaced geometry.

	--- Internal Coordinate Step in ANG or DEG, aJ/ANG or AJ/DEG ---
	 ---------------------------------------------------------------------------
	   Coordinate                Previous        Force       Change         New 
	   ----------                --------       ------       ------       ------
	    1 R(1,2)          =      1.409422     0.000001    -0.000002     1.409420
	    2 R(1,6)          =      1.408765     0.000223     0.000025     1.408790
	    3 R(1,7)          =      1.461711     0.000439     0.000057     1.461768
	    4 R(2,3)          =      1.390113     0.000080     0.000008     1.390121
	    5 R(2,8)          =      1.086511    -0.000027    -0.000003     1.086508
	    6 R(3,4)          =      1.399138    -0.000012    -0.000000     1.399138
	    7 R(3,9)          =      1.085106     0.000005     0.000001     1.085107
	    8 R(4,5)          =      1.398556    -0.000078    -0.000009     1.398547
	    9 R(4,10)         =      1.085705     0.000007     0.000001     1.085706
	   10 R(5,6)          =      1.390743     0.000060     0.000007     1.390751
	   11 R(5,11)         =      1.085106     0.000014     0.000002     1.085108
	   12 R(6,12)         =      1.086160    -0.000053    -0.000008     1.086152
	   13 R(7,13)         =      1.340763     0.000236     0.000031     1.340794
	   14 R(7,14)         =      1.329250    -0.000017     0.000002     1.329251
	   15 R(13,17)        =      1.014493    -0.000037    -0.000007     1.014485
	   16 R(13,18)        =      1.012758     0.000021     0.000013     1.012771
	   17 R(14,15)        =      1.013793     0.000030     0.000004     1.013797
	   18 R(14,16)        =      1.011813     0.000030     0.000006     1.011819
	   19 B(1,2,3)        =    119.780925     0.000000     0.000740   119.781665
	   20 B(1,2,8)        =    120.357647     0.000000     0.001737   120.359384
	   21 B(1,6,5)        =    119.707035     0.000000     0.000047   119.707082
	   22 B(1,6,12)       =    120.566067     0.000000     0.000019   120.566086
	   23 B(1,7,13)       =    121.269202     0.000003     0.006903   121.276105
	   24 B(1,7,14)       =    120.158279     0.000001    -0.003146   120.155134
	   25 B(2,1,6)        =    120.019174    -0.000001    -0.001060   120.018114
	   26 B(2,1,7)        =    120.184412    -0.000000    -0.000938   120.183474
	   27 B(2,3,4)        =    119.957905     0.000000    -0.000396   119.957509
	   28 B(2,3,9)        =    119.838581     0.000000     0.001093   119.839674
	   29 B(3,2,8)        =    119.790748    -0.000001    -0.002116   119.788632
	   30 B(3,4,5)        =    120.501024     0.000000     0.000740   120.501765
	   31 B(3,4,10)       =    119.754727    -0.000000    -0.000350   119.754378
	   32 B(4,3,9)        =    120.198820    -0.000000    -0.000686   120.198134
	   33 B(4,5,6)        =    120.030023    -0.000000    -0.000106   120.029917
	   34 B(4,5,11)       =    120.203064    -0.000000    -0.000794   120.202269
	   35 B(5,4,10)       =    119.744135    -0.000000    -0.000379   119.743756
	   36 B(5,6,12)       =    119.650675    -0.000000    -0.001080   119.649595
	   37 B(6,1,7)        =    119.792907     0.000001     0.001875   119.794782
	   38 B(6,5,11)       =    119.764830     0.000000     0.000849   119.765679
	   39 B(7,13,17)      =    120.998624     0.000000     0.000368   120.998992
	   40 B(7,13,18)      =    117.690978    -0.000001    -0.007091   117.683887
	   41 B(7,14,15)      =    122.015901    -0.000001    -0.002632   122.013269
	   42 B(7,14,16)      =    120.475637     0.000001     0.004219   120.479856
	   43 B(13,7,14)      =    118.531680    -0.000004    -0.003730   118.527950
	   44 B(15,14,16)     =    117.501194    -0.000000    -0.001822   117.499371
	   45 B(17,13,18)     =    114.621038     0.000001     0.006068   114.627107
	   46 D(1,2,3,4)      =      0.179380    -0.000000    -0.004476     0.174903
	   47 D(1,2,3,9)      =   -179.034174    -0.000000    -0.005341  -179.039516
	   48 D(1,6,5,4)      =      0.652662     0.000000     0.004071     0.656733
	   49 D(1,6,5,11)     =   -178.823376     0.000000     0.010461  -178.812915
	   50 *D(1,7,13,17)   =   -139.999998     0.000000     0.000000  -139.999998
	   51 D(1,7,13,18)    =      9.793465     0.000000     0.000349     9.793814
	   52 D(1,7,14,15)    =   -171.929823    -0.000000     0.000085  -171.929738
	   53 D(1,7,14,16)    =      9.075665    -0.000000     0.016222     9.091887
	   54 D(2,1,6,5)      =     -0.713090    -0.000000    -0.004835    -0.717925
	   55 D(2,1,6,12)     =   -177.527422     0.000000     0.016309  -177.511114
	   56 D(2,1,7,13)     =   -146.389769    -0.000000     0.026913  -146.362856
	   57 D(2,1,7,14)     =     35.968818     0.000000     0.026194    35.995012
	   58 D(2,3,4,5)      =     -0.241620     0.000000     0.003731    -0.237889
	   59 D(2,3,4,10)     =    179.880950    -0.000000    -0.002704   179.878246
	   60 D(3,2,1,6)      =      0.296100     0.000000     0.005043     0.301143
	   61 D(3,2,1,7)      =   -179.021246     0.000000     0.016867  -179.004380
	   62 D(3,4,5,6)      =     -0.178815    -0.000000    -0.003529    -0.182344
	   63 D(3,4,5,11)     =    179.294906    -0.000000    -0.009939   179.284968
	   64 D(4,3,2,8)      =    177.133508     0.000000     0.003363   177.136872
	   65 D(4,5,6,12)     =    177.496402    -0.000000    -0.016842   177.479560
	   66 D(5,4,3,9)      =    178.969072     0.000000     0.004613   178.973685
	   67 D(5,6,1,7)      =    178.606943    -0.000000    -0.016631   178.590311
	   68 D(6,1,2,8)      =   -176.640510    -0.000000    -0.002723  -176.643234
	   69 D(6,1,7,13)     =     34.291337    -0.000000     0.038730    34.330067
	   70 D(6,1,7,14)     =   -143.350077     0.000000     0.038012  -143.312065
	   71 D(6,5,4,10)     =    179.698629     0.000000     0.002905   179.701534
	   72 D(7,1,2,8)      =      4.042144     0.000000     0.009101     4.051244
	   73 D(7,1,6,12)     =      1.792610     0.000000     0.004512     1.797122
	   74 D(8,2,3,9)      =     -2.080046     0.000000     0.002499    -2.077547
	   75 D(9,3,4,10)     =     -0.908358    -0.000000    -0.001822    -0.910181
	   76 D(10,4,5,11)    =     -0.827650    -0.000000    -0.003504    -0.831154
	   77 D(11,5,6,12)    =     -1.979636    -0.000000    -0.010452    -1.990088
	   78 D(13,7,14,15)   =     10.364794     0.000000    -0.000863    10.363931
	   79 D(13,7,14,16)   =   -168.629718     0.000000     0.015274  -168.614444
	   80 D(14,7,13,17)   =     37.678785    -0.000001     0.000715    37.679500
	   81 D(14,7,13,18)   =   -172.527751    -0.000000     0.001064  -172.526687
	 ---------------------------------------------------------------------------
	Successfully symmetrized geometry.

  ==> Convergence Check <==

  Measures of convergence in internal coordinates in au.
  Criteria marked as inactive (o), active & met (*), and active & unmet ( ).
  ---------------------------------------------------------------------------------------------
   Step     Total Energy     Delta E     MAX Force     RMS Force      MAX Disp      RMS Disp   
  ---------------------------------------------------------------------------------------------
    Convergence Criteria    1.00e-06 *    3.00e-04 *             o    1.20e-03 *             o
  ---------------------------------------------------------------------------------------------
      7    -381.46651484   -1.71e-07 *    5.32e-05 *    1.35e-05 o    6.76e-04 *    1.61e-04 o  ~
  ---------------------------------------------------------------------------------------------


  **** Optimization is complete! (in 7 steps) ****

  ==> Optimization Summary <==

  Measures of convergence in internal coordinates in au.
  --------------------------------------------------------------------------------------------------------------- ~
   Step         Total Energy             Delta E       MAX Force       RMS Force        MAX Disp        RMS Disp  ~
  --------------------------------------------------------------------------------------------------------------- ~
      1    -381.461361678685   -381.461361678685      0.01277440      0.00262192      0.32225578      0.05318477  ~
      2    -381.464513127327     -0.003151448641      0.02604910      0.00322916      0.16991116      0.02721312  ~
      3    -381.466271958216     -0.001758830890      0.00863240      0.00107502      0.08635884      0.01597815  ~
      4    -381.466492811417     -0.000220853201      0.00127687      0.00027599      0.01543674      0.00390142  ~
      5    -381.466512124034     -0.000019312617      0.00039243      0.00009028      0.00639933      0.00188275  ~
      6    -381.466514668349     -0.000002544314      0.00017344      0.00003230      0.00194351      0.00048054  ~
      7    -381.466514839806     -0.000000171457      0.00005323      0.00001345      0.00067597      0.00016076  ~
  --------------------------------------------------------------------------------------------------------------- ~

	Writing optimization data to binary file.
	Final energy is   -381.4665148398061
	Final (previous) structure:
	Cartesian Geometry (in Angstrom)
	    C    -0.0153672190  -0.1806954505   0.0642938200
	    C     1.2025968254   0.4903787614   0.2938438538
	    C     1.4146528685   1.7461904802  -0.2632755882
	    C     0.4186479974   2.3406748847  -1.0456756699
	    C    -0.7912889973   1.6787430284  -1.2777466166
	    C    -1.0107886479   0.4182822728  -0.7325627471
	    C    -0.2561527206  -1.4921091216   0.6633056203
	    H     1.9950608443   0.0110522009   0.8619571968
	    H     2.3580641616   2.2568960514  -0.1001511500
	    H     0.5870105444   3.3224348565  -1.4775979631
	    H    -1.5649001623   2.1491457885  -1.8758277640
	    H    -1.9679072595  -0.0728018811  -0.8825754688
	    N    -0.9830581400  -2.4237160108   0.0297738943
	    N     0.2081450123  -1.7667856836   1.8781656548
	    H     0.1636247515  -2.6997615970   2.2723116178
	    H     0.6092357088  -1.0359810218   2.4515908660
	    H    -1.6388352936  -3.0086979424   0.5366741147
	    H    -1.2323813828  -2.2495733139  -0.9362445696
	Saving final (previous) structure.
			--------------------------
			 OPTKING Finished Execution 
			--------------------------

    Final optimized geometry and variables:
    Molecular point group: c1
    Full point group: C1

    Geometry (in Angstrom), charge = 1, multiplicity = 1:

    C           -0.015367219011    -0.180695450452     0.064293819974
    C            1.202596825442     0.490378761359     0.293843853842
    C            1.414652868533     1.746190480237    -0.263275588160
    C            0.418647997422     2.340674884707    -1.045675669910
    C           -0.791288997257     1.678743028378    -1.277746616571
    C           -1.010788647902     0.418282272803    -0.732562747087
    C           -0.256152720635    -1.492109121642     0.663305620333
    H            1.995060844280     0.011052200927     0.861957196826
    H            2.358064161599     2.256896051407    -0.100151149977
    H            0.587010544447     3.322434856489    -1.477597963120
    H           -1.564900162253     2.149145788543    -1.875827764014
    H           -1.967907259529    -0.072801881140    -0.882575468816
    N           -0.983058139991    -2.423716010793     0.029773894334
    N            0.208145012285    -1.766785683583     1.878165654774
    H            0.163624751451    -2.699761597047     2.272311617785
    H            0.609235708809    -1.035981021762     2.451590865976
    H           -1.638835293613    -3.008697942397     0.536674114688
    H           -1.232381382782    -2.249573313947    -0.936244569560

	Cleaning optimization helper files.


Properties will be evaluated at   0.000000,   0.000000,   0.000000 Bohr

Properties computed using the  density matrix

  Nuclear Dipole Moment: (a.u.)
     X:    -0.6456      Y:    -1.2321      Z:     0.7914

  Electronic Dipole Moment: (a.u.)
     X:     0.0903      Y:    -0.4782      Z:     0.2197

  Dipole Moment: (a.u.)
     X:    -0.5552      Y:    -1.7104      Z:     1.0111     Total:     2.0630

  Dipole Moment: (Debye)
     X:    -1.4113      Y:    -4.3473      Z:     2.5701     Total:     5.2437

  Quadrupole Moment: (Debye Ang)
    XX:   -40.6353     YY:   -23.8893     ZZ:   -37.4734
    XY:     9.1921     XZ:     5.3039     YZ:   -12.7738

  Traceless Quadrupole Moment: (Debye Ang)
    XX:    -6.6359     YY:    10.1100     ZZ:    -3.4741
    XY:     9.1921     XZ:     5.3039     YZ:   -12.7738

  Mulliken Charges: (a.u.)
   Center  Symbol    Alpha    Beta     Spin     Total
       1     C     2.95195  2.95195  0.00000  0.09610
       2     C     3.08166  3.08166  0.00000 -0.16333
       3     C     3.06228  3.06228  0.00000 -0.12456
       4     C     3.05070  3.05070  0.00000 -0.10140
       5     C     3.06234  3.06234  0.00000 -0.12468
       6     C     3.08043  3.08043  0.00000 -0.16086
       7     C     2.73638  2.73638  0.00000  0.52724
       8     H     0.41303  0.41303  0.00000  0.17395
       9     H     0.40451  0.40451  0.00000  0.19098
      10     H     0.40277  0.40277  0.00000  0.19445
      11     H     0.40469  0.40469  0.00000  0.19062
      12     H     0.41644  0.41644  0.00000  0.16711
      13     N     3.86328  3.86328  0.00000 -0.72656
      14     N     3.85677  3.85677  0.00000 -0.71355
      15     H     0.30333  0.30333  0.00000  0.39334
      16     H     0.30035  0.30035  0.00000  0.39930
      17     H     0.30525  0.30525  0.00000  0.38951
      18     H     0.30382  0.30382  0.00000  0.39235

   Total alpha = 32.00000, Total beta = 32.00000, Total charge =  1.00000


*** Psi4 exiting successfully. Buy a developer a beer!
