    -----------------------------------------------------------------------
          Psi4: An Open-Source Ab Initio Electronic Structure Package
                              Psi4 (no tag) Driver

                          Git: Rev {detached?}  

    J. M. Turney, A. C. Simmonett, R. M. Parrish, E. G. Hohenstein,
    F. A. Evangelista, J. T. Fermann, B. J. Mintz, L. A. Burns, J. J. Wilke,
    M. L. Abrams, N. J. Russ, M. L. Leininger, C. L. Janssen, E. T. Seidl,
    W. D. Allen, H. F. Schaefer, R. A. King, E. F. Valeev, C. D. Sherrill,
    and T. D. Crawford, WIREs Comput. Mol. Sci. 2, 556-565 (2012)
    (doi: 10.1002/wcms.93)

                         Additional Contributions by
    A. E. DePrince, M. Saitow, U. Bozkaya, A. Yu. Sokolov
    -----------------------------------------------------------------------


    Psi4 started on: Tue Jul  5 16:26:01 2016

    Process ID:  25266
    PSI4DATADIR: /export131/home/mjharvey/miniconda3/share
    Memory level set to 256.000 MB

  ==> Input File <==

--------------------------------------------------------------------------
set {
	reference rhf
	basis 6-31G*
}


set_num_threads( 1 )
memory 2 gb

molecule MOL {
0 1

H	 1.219364	 -0.042320	 0.912176
C	 0.850167	 0.441173	 0.000644
C	 -0.623425	 0.760064	 0.000248
O	 1.595589	 0.679166	 -0.893476
C	 -1.518387	 -0.473136	 -0.000101
H	 -0.818289	 1.390622	 -0.866171
H	 -0.818694	 1.390413	 0.866696
H	 -1.333417	 -1.085530	 -0.874338
H	 -2.563510	 -0.183466	 -0.000351
H	 -1.333864	 -1.085676	 0.874123

	symmetry c1
}
ee = energy('scf')
oeprop('DIPOLE', 'QUADRUPOLE', 'MULLIKEN_CHARGES')
f=open( 'psi4out.xyz', 'w' )
f.write( "10  " )
f.write( str(ee) + "\n" )
f.write( MOL.save_string_xyz() )
f.close()
--------------------------------------------------------------------------

  Memory set to   2.000 GiB by Python script.

*** tstart() called on cx1-3-5-2.cx1.hpc.ic.ac.uk
*** at Tue Jul  5 16:26:02 2016


         ---------------------------------------------------------
                                   SCF
            by Justin Turney, Rob Parrish, and Andy Simmonett
                              RHF Reference
                        1 Threads,   2000 MiB Core
         ---------------------------------------------------------

  ==> Geometry <==

    Molecular point group: c1
    Full point group: C1

    Geometry (in Angstrom), charge = 0, multiplicity = 1:

       Center              X                  Y                   Z               Mass       
    ------------   -----------------  -----------------  -----------------  -----------------
           H          1.144780579093    -0.386682855950     1.142394444777     1.007825032070
           C          0.775583579093     0.096810144050     0.230862444777    12.000000000000
           C         -0.698008420907     0.415701144050     0.230466444777    12.000000000000
           O          1.521005579093     0.334803144050    -0.663257555223    15.994914619560
           C         -1.592970420907    -0.817498855950     0.230117444777    12.000000000000
           H         -0.892872420907     1.046259144050    -0.635952555223     1.007825032070
           H         -0.893277420907     1.046050144050     1.096914444777     1.007825032070
           H         -1.408000420907    -1.429892855950    -0.644119555223     1.007825032070
           H         -2.638093420907    -0.527828855950     0.229867444777     1.007825032070
           H         -1.408447420907    -1.430038855950     1.104341444777     1.007825032070

  Running in c1 symmetry.

  Rotational constants: A =      0.82954  B =      0.14666  C =      0.14245 [cm^-1]
  Rotational constants: A =  24868.97595  B =   4396.76648  C =   4270.64904 [MHz]
  Nuclear repulsion =  117.370567672649386

  Charge       = 0
  Multiplicity = 1
  Electrons    = 32
  Nalpha       = 16
  Nbeta        = 16

  ==> Algorithm <==

  SCF Algorithm Type is DF.
  DIIS enabled.
  MOM disabled.
  Fractional occupation disabled.
  Guess Type is CORE.
  Energy threshold   = 1.00e-06
  Density threshold  = 1.00e-06
  Integral threshold = 0.00e+00

  ==> Primary Basis <==

  Basis Set: 6-31G*
    Number of shells: 36
    Number of basis function: 72
    Number of Cartesian functions: 72
    Spherical Harmonics?: false
    Max angular momentum: 2

  ==> Pre-Iterations <==

   -------------------------------------------------------
    Irrep   Nso     Nmo     Nalpha   Nbeta   Ndocc  Nsocc
   -------------------------------------------------------
     A         72      72       0       0       0       0
   -------------------------------------------------------
    Total      72      72      16      16      16       0
   -------------------------------------------------------

 OEINTS: Overlap, kinetic, potential, dipole, and quadrupole integrals
         stored in file 35.

  ==> Integral Setup <==

  ==> DFJK: Density-Fitted J/K Matrices <==

    J tasked:                  Yes
    K tasked:                  Yes
    wK tasked:                  No
    OpenMP threads:              1
    Integrals threads:           1
    Memory (MB):              1430
    Algorithm:                Core
    Integral Cache:           NONE
    Schwarz Cutoff:          1E-12
    Fitting Condition:       1E-12

   => Auxiliary Basis Set <=

  Basis Set: 
    Number of shells: 150
    Number of basis function: 474
    Number of Cartesian functions: 474
    Spherical Harmonics?: false
    Max angular momentum: 3

  Minimum eigenvalue in the overlap matrix is 4.9169922981E-03.
  Using Symmetric Orthogonalization.
  SCF Guess: Core (One-Electron) Hamiltonian.

  ==> Iterations <==

                           Total Energy        Delta E     RMS |[F,P]|

   @DF-RHF iter   1:  -151.55561351924644   -1.51556e+02   9.25793e-02 
   @DF-RHF iter   2:  -115.56232682008142    3.59933e+01   8.24533e-02 DIIS
   @DF-RHF iter   3:  -170.62719792654002   -5.50649e+01   6.11522e-02 DIIS
   @DF-RHF iter   4:  -191.23702257264296   -2.06098e+01   1.64932e-02 DIIS
   @DF-RHF iter   5:  -191.91099178202842   -6.73969e-01   3.84491e-03 DIIS
   @DF-RHF iter   6:  -191.94696681779396   -3.59750e-02   8.82016e-04 DIIS
   @DF-RHF iter   7:  -191.94893481400698   -1.96800e-03   4.31946e-04 DIIS
   @DF-RHF iter   8:  -191.94942563585460   -4.90822e-04   1.10131e-04 DIIS
   @DF-RHF iter   9:  -191.94947273468028   -4.70988e-05   2.80666e-05 DIIS
   @DF-RHF iter  10:  -191.94947893745962   -6.20278e-06   1.31193e-05 DIIS
   @DF-RHF iter  11:  -191.94948091785818   -1.98040e-06   5.83333e-06 DIIS
   @DF-RHF iter  12:  -191.94948146676126   -5.48903e-07   2.49437e-06 DIIS
   @DF-RHF iter  13:  -191.94948157304856   -1.06287e-07   9.12269e-07 DIIS

  ==> Post-Iterations <==

    Orbital Energies (a.u.)
    -----------------------

    Doubly Occupied:                                                      

       1A    -20.564803     2A    -11.328107     3A    -11.238547  
       4A    -11.234026     5A     -1.404274     6A     -1.067177  
       7A     -0.906759     8A     -0.792209     9A     -0.675372  
      10A     -0.640763    11A     -0.610573    12A     -0.573251  
      13A     -0.545314    14A     -0.508372    15A     -0.498162  
      16A     -0.412614  

    Virtual:                                                              

      17A      0.157438    18A      0.243346    19A      0.275372  
      20A      0.286345    21A      0.310779    22A      0.313815  
      23A      0.320250    24A      0.382395    25A      0.442517  
      26A      0.480946    27A      0.703726    28A      0.733412  
      29A      0.744676    30A      0.782520    31A      0.840875  
      32A      0.892620    33A      0.943172    34A      0.969339  
      35A      1.013132    36A      1.074719    37A      1.111409  
      38A      1.120255    39A      1.150548    40A      1.161430  
      41A      1.196204    42A      1.233465    43A      1.253014  
      44A      1.296770    45A      1.354965    46A      1.446102  
      47A      1.636781    48A      1.683104    49A      1.791860  
      50A      1.854693    51A      1.887157    52A      1.993440  
      53A      2.110010    54A      2.126740    55A      2.199498  
      56A      2.249576    57A      2.261512    58A      2.409041  
      59A      2.468183    60A      2.567378    61A      2.643404  
      62A      2.660639    63A      2.750187    64A      2.927038  
      65A      2.944336    66A      3.002936    67A      3.248159  
      68A      3.356495    69A      4.278769    70A      4.519504  
      71A      4.656871    72A      4.881643  

    Final Occupation by Irrep:
              A 
    DOCC [    16 ]

  Energy converged.

  @DF-RHF Final Energy:  -191.94948157304856

   => Energetics <=

    Nuclear Repulsion Energy =            117.3705676726493863
    One-Electron Energy =                -492.6394274993151612
    Two-Electron Energy =                 183.3193782536172591
    DFT Exchange-Correlation Energy =       0.0000000000000000
    Empirical Dispersion Energy =           0.0000000000000000
    PCM Polarization Energy =               0.0000000000000000
    EFP Energy =                            0.0000000000000000
    Total Energy =                       -191.9494815730485300

    Alert: EFP and PCM quantities not currently incorporated into SCF psivars.

Properties will be evaluated at   0.000000,   0.000000,   0.000000 Bohr
  ==> Properties <==


Properties computed using the SCF density matrix

  Nuclear Dipole Moment: (a.u.)
     X:    -5.7074      Y:    -1.5753      Z:     2.1468

  Electronic Dipole Moment: (a.u.)
     X:     4.8044      Y:     1.3756      Z:    -1.3822

  Dipole Moment: (a.u.)
     X:    -0.9030      Y:    -0.1997      Z:     0.7647     Total:     1.2000

  Dipole Moment: (Debye)
     X:    -2.2953      Y:    -0.5076      Z:     1.9436     Total:     3.0501


  Saving occupied orbitals to File 180.

*** tstop() called on cx1-3-5-2.cx1.hpc.ic.ac.uk at Tue Jul  5 16:26:04 2016
Module time:
	user time   =       2.37 seconds =       0.04 minutes
	system time =       0.02 seconds =       0.00 minutes
	total time  =          2 seconds =       0.03 minutes
Total time:
	user time   =       2.37 seconds =       0.04 minutes
	system time =       0.02 seconds =       0.00 minutes
	total time  =          2 seconds =       0.03 minutes


Properties will be evaluated at   0.000000,   0.000000,   0.000000 Bohr

Properties computed using the  density matrix

  Nuclear Dipole Moment: (a.u.)
     X:    -5.7074      Y:    -1.5753      Z:     2.1468

  Electronic Dipole Moment: (a.u.)
     X:     4.8044      Y:     1.3756      Z:    -1.3822

  Dipole Moment: (a.u.)
     X:    -0.9030      Y:    -0.1997      Z:     0.7647     Total:     1.2000

  Dipole Moment: (Debye)
     X:    -2.2953      Y:    -0.5076      Z:     1.9436     Total:     3.0501

  Quadrupole Moment: (Debye Ang)
    XX:   -28.4804     YY:   -24.7009     ZZ:   -25.4668
    XY:    -1.0953     XZ:     2.8234     YZ:     0.6978

  Traceless Quadrupole Moment: (Debye Ang)
    XX:    -2.2644     YY:     1.5151     ZZ:     0.7492
    XY:    -1.0953     XZ:     2.8234     YZ:     0.6978

  Mulliken Charges: (a.u.)
   Center  Symbol    Alpha    Beta     Spin     Total
       1     H     0.43252  0.43252  0.00000  0.13496
       2     C     2.83166  2.83166  0.00000  0.33668
       3     C     3.20705  3.20705  0.00000 -0.41411
       4     O     4.23490  4.23490  0.00000 -0.46980
       5     C     3.24857  3.24857  0.00000 -0.49715
       6     H     0.40019  0.40019  0.00000  0.19963
       7     H     0.41105  0.41105  0.00000  0.17791
       8     H     0.40887  0.40887  0.00000  0.18227
       9     H     0.40878  0.40878  0.00000  0.18244
      10     H     0.41641  0.41641  0.00000  0.16718

   Total alpha = 16.00000, Total beta = 16.00000, Total charge = -0.00000


*** PSI4 exiting successfully. Buy a developer a beer!
