    -----------------------------------------------------------------------
          Psi4: An Open-Source Ab Initio Electronic Structure Package
                              Psi4 (no tag) Driver

                          Git: Rev {detached?}  

    J. M. Turney, A. C. Simmonett, R. M. Parrish, E. G. Hohenstein,
    F. A. Evangelista, J. T. Fermann, B. J. Mintz, L. A. Burns, J. J. Wilke,
    M. L. Abrams, N. J. Russ, M. L. Leininger, C. L. Janssen, E. T. Seidl,
    W. D. Allen, H. F. Schaefer, R. A. King, E. F. Valeev, C. D. Sherrill,
    and T. D. Crawford, WIREs Comput. Mol. Sci. 2, 556-565 (2012)
    (doi: 10.1002/wcms.93)

                         Additional Contributions by
    A. E. DePrince, M. Saitow, U. Bozkaya, A. Yu. Sokolov
    -----------------------------------------------------------------------


    Psi4 started on: Tue Jul  5 16:44:46 2016

    Process ID:  24267
    PSI4DATADIR: /export131/home/mjharvey/miniconda3/share
    Memory level set to 256.000 MB

  ==> Input File <==

--------------------------------------------------------------------------
set {
	reference rhf
	basis 6-31G*
}


set_num_threads( 1 )
memory 2 gb

molecule MOL {
0 1

H	 -3.892951	 0.981613	 -0.358725
C	 -3.196921	 0.361773	 0.172313
C	 -2.076860	 -0.007332	 -0.404944
H	 -3.439953	 0.057760	 1.173024
O	 -1.180634	 -0.819263	 0.215062
H	 -1.811520	 0.292194	 -1.403480
C	 0.051604	 -1.018856	 -0.387932
C	 1.043764	 0.054862	 -0.001873
H	 -0.017620	 -1.041351	 -1.469781
H	 0.437898	 -1.966374	 -0.042284
F	 1.635390	 -0.280018	 1.135510
F	 1.987470	 0.202951	 -0.916925
F	 0.464577	 1.224933	 0.170949

	symmetry c1
}
set optking {
	frozen_dihedral = ("
		3 5 7 9,
		6 3 2 1,
		6 3 5 7
	")
}

ee = energy('scf')
oeprop('DIPOLE', 'QUADRUPOLE', 'MULLIKEN_CHARGES')
f=open( 'psi4out.xyz', 'w' )
f.write( "13  " )
f.write( str(ee) + "\n" )
f.write( MOL.save_string_xyz() )
f.close()
--------------------------------------------------------------------------

  Memory set to   2.000 GiB by Python script.

*** tstart() called on cx1-3-14-4.cx1.hpc.ic.ac.uk
*** at Tue Jul  5 16:44:47 2016


         ---------------------------------------------------------
                                   SCF
            by Justin Turney, Rob Parrish, and Andy Simmonett
                              RHF Reference
                        1 Threads,   2000 MiB Core
         ---------------------------------------------------------

  ==> Geometry <==

    Molecular point group: c1
    Full point group: C1

    Geometry (in Angstrom), charge = 0, multiplicity = 1:

       Center              X                  Y                   Z               Mass       
    ------------   -----------------  -----------------  -----------------  -----------------
           H         -3.891659772200     0.983996023086    -0.368671119790     1.007825032070
           C         -3.195629772200     0.364156023086     0.162366880210    12.000000000000
           C         -2.075568772200    -0.004948976914    -0.414890119790    12.000000000000
           H         -3.438661772200     0.060143023086     1.163077880210     1.007825032070
           O         -1.179342772200    -0.816879976914     0.205115880210    15.994914619560
           H         -1.810228772200     0.294577023086    -1.413426119790     1.007825032070
           C          0.052895227800    -1.016472976914    -0.397878119790    12.000000000000
           C          1.045055227800     0.057245023086    -0.011819119790    12.000000000000
           H         -0.016328772200    -1.038967976914    -1.479727119790     1.007825032070
           H          0.439189227800    -1.963990976914    -0.052230119790     1.007825032070
           F          1.636681227800    -0.277634976914     1.125563880210    18.998403224000
           F          1.988761227800     0.205334023086    -0.926871119790    18.998403224000
           F          0.465868227800     1.227316023086     0.161002880210    18.998403224000

  Running in c1 symmetry.

  Rotational constants: A =      0.14910  B =      0.03997  C =      0.03898 [cm^-1]
  Rotational constants: A =   4469.91187  B =   1198.24948  C =   1168.57468 [MHz]
  Nuclear repulsion =  414.018732637666346

  Charge       = 0
  Multiplicity = 1
  Electrons    = 64
  Nalpha       = 32
  Nbeta        = 32

  ==> Algorithm <==

  SCF Algorithm Type is DF.
  DIIS enabled.
  MOM disabled.
  Fractional occupation disabled.
  Guess Type is CORE.
  Energy threshold   = 1.00e-06
  Density threshold  = 1.00e-06
  Integral threshold = 0.00e+00

  ==> Primary Basis <==

  Basis Set: 6-31G*
    Number of shells: 58
    Number of basis function: 130
    Number of Cartesian functions: 130
    Spherical Harmonics?: false
    Max angular momentum: 2

  ==> Pre-Iterations <==

   -------------------------------------------------------
    Irrep   Nso     Nmo     Nalpha   Nbeta   Ndocc  Nsocc
   -------------------------------------------------------
     A        130     130       0       0       0       0
   -------------------------------------------------------
    Total     130     130      32      32      32       0
   -------------------------------------------------------

 OEINTS: Overlap, kinetic, potential, dipole, and quadrupole integrals
         stored in file 35.

  ==> Integral Setup <==

  ==> DFJK: Density-Fitted J/K Matrices <==

    J tasked:                  Yes
    K tasked:                  Yes
    wK tasked:                  No
    OpenMP threads:              1
    Integrals threads:           1
    Memory (MB):              1430
    Algorithm:                Core
    Integral Cache:           NONE
    Schwarz Cutoff:          1E-12
    Fitting Condition:       1E-12

   => Auxiliary Basis Set <=

  Basis Set: 
    Number of shells: 237
    Number of basis function: 773
    Number of Cartesian functions: 773
    Spherical Harmonics?: false
    Max angular momentum: 3

  Minimum eigenvalue in the overlap matrix is 1.7896529659E-03.
  Using Symmetric Orthogonalization.
  SCF Guess: Core (One-Electron) Hamiltonian.

  ==> Iterations <==

                           Total Energy        Delta E     RMS |[F,P]|

   @DF-RHF iter   1:  -440.50598857040944   -4.40506e+02   7.39504e-02 
   @DF-RHF iter   2:  -175.96891840526888    2.64537e+02   9.73042e-02 DIIS
   @DF-RHF iter   3:  -490.92373741388400   -3.14955e+02   3.95649e-02 DIIS
   @DF-RHF iter   4:  -421.65246176429542    6.92713e+01   6.81210e-02 DIIS
   @DF-RHF iter   5:  -523.76249066005903   -1.02110e+02   1.63303e-02 DIIS
   @DF-RHF iter   6:  -527.12272785987898   -3.36024e+00   7.72532e-03 DIIS
   @DF-RHF iter   7:  -527.50915695604544   -3.86429e-01   1.54803e-03 DIIS
   @DF-RHF iter   8:  -527.52663309424270   -1.74761e-02   7.04184e-04 DIIS
   @DF-RHF iter   9:  -527.53098969489020   -4.35660e-03   3.35403e-04 DIIS
   @DF-RHF iter  10:  -527.53189982787217   -9.10133e-04   1.81396e-04 DIIS
   @DF-RHF iter  11:  -527.53226473073914   -3.64903e-04   3.73912e-05 DIIS
   @DF-RHF iter  12:  -527.53228450734991   -1.97766e-05   1.31688e-05 DIIS
   @DF-RHF iter  13:  -527.53228777434765   -3.26700e-06   5.44262e-06 DIIS
   @DF-RHF iter  14:  -527.53228825361020   -4.79263e-07   1.39575e-06 DIIS
   @DF-RHF iter  15:  -527.53228830052444   -4.69142e-08   6.12342e-07 DIIS

  ==> Post-Iterations <==

    Orbital Energies (a.u.)
    -----------------------

    Doubly Occupied:                                                      

       1A    -26.346300     2A    -26.343981     3A    -26.337406  
       4A    -20.607694     5A    -11.503008     6A    -11.317724  
       7A    -11.299390     8A    -11.215324     9A     -1.741798  
      10A     -1.641412    11A     -1.636365    12A     -1.437430  
      13A     -1.083983    14A     -1.016100    15A     -0.924924  
      16A     -0.836990    17A     -0.830535    18A     -0.821376  
      19A     -0.790796    20A     -0.722926    21A     -0.714662  
      22A     -0.695575    23A     -0.674604    24A     -0.662087  
      25A     -0.653671    26A     -0.642650    27A     -0.629273  
      28A     -0.582798    29A     -0.562235    30A     -0.524877  
      31A     -0.513500    32A     -0.351118  

    Virtual:                                                              

      33A      0.190912    34A      0.231574    35A      0.270569  
      36A      0.280026    37A      0.294787    38A      0.312449  
      39A      0.343686    40A      0.409807    41A      0.423845  
      42A      0.451438    43A      0.476429    44A      0.509337  
      45A      0.530862    46A      0.691623    47A      0.699766  
      48A      0.721995    49A      0.739086    50A      0.758709  
      51A      0.769774    52A      0.811401    53A      0.823571  
      54A      0.877941    55A      0.909088    56A      0.922451  
      57A      0.981219    58A      1.075564    59A      1.097768  
      60A      1.131578    61A      1.145849    62A      1.156852  
      63A      1.203752    64A      1.234750    65A      1.262224  
      66A      1.323477    67A      1.356224    68A      1.371481  
      69A      1.414995    70A      1.430590    71A      1.449983  
      72A      1.471450    73A      1.583554    74A      1.612204  
      75A      1.633979    76A      1.651093    77A      1.668851  
      78A      1.673173    79A      1.685883    80A      1.725389  
      81A      1.747763    82A      1.812932    83A      1.854649  
      84A      1.906129    85A      1.947852    86A      1.970144  
      87A      2.021968    88A      2.042766    89A      2.112621  
      90A      2.132366    91A      2.138901    92A      2.144690  
      93A      2.240390    94A      2.246356    95A      2.270255  
      96A      2.296989    97A      2.318060    98A      2.325881  
      99A      2.362282   100A      2.401917   101A      2.412397  
     102A      2.419875   103A      2.487172   104A      2.513448  
     105A      2.551964   106A      2.581893   107A      2.671261  
     108A      2.694487   109A      2.719673   110A      2.804685  
     111A      2.877973   112A      2.925952   113A      2.998208  
     114A      3.090452   115A      3.143271   116A      3.176550  
     117A      3.204133   118A      3.295300   119A      3.417540  
     120A      3.423987   121A      3.443710   122A      3.484550  
     123A      4.348187   124A      4.538054   125A      4.603095  
     126A      4.727582   127A      4.917853   128A      4.956514  
     129A      5.077996   130A      5.818817  

    Final Occupation by Irrep:
              A 
    DOCC [    32 ]

  Energy converged.

  @DF-RHF Final Energy:  -527.53228830052444

   => Energetics <=

    Nuclear Repulsion Energy =            414.0187326376663464
    One-Electron Energy =               -1551.7770276684880173
    Two-Electron Energy =                 610.2260067302968309
    DFT Exchange-Correlation Energy =       0.0000000000000000
    Empirical Dispersion Energy =           0.0000000000000000
    PCM Polarization Energy =               0.0000000000000000
    EFP Energy =                            0.0000000000000000
    Total Energy =                       -527.5322883005248968

    Alert: EFP and PCM quantities not currently incorporated into SCF psivars.

Properties will be evaluated at   0.000000,   0.000000,   0.000000 Bohr
  ==> Properties <==


Properties computed using the SCF density matrix

  Nuclear Dipole Moment: (a.u.)
     X:   -12.0378      Y:    -2.6537      Z:    -2.3548

  Electronic Dipole Moment: (a.u.)
     X:    11.7978      Y:     2.2858      Z:     1.6301

  Dipole Moment: (a.u.)
     X:    -0.2400      Y:    -0.3679      Z:    -0.7247     Total:     0.8475

  Dipole Moment: (Debye)
     X:    -0.6100      Y:    -0.9351      Z:    -1.8421     Total:     2.1541


  Saving occupied orbitals to File 180.

*** tstop() called on cx1-3-14-4.cx1.hpc.ic.ac.uk at Tue Jul  5 16:44:57 2016
Module time:
	user time   =       9.86 seconds =       0.16 minutes
	system time =       0.06 seconds =       0.00 minutes
	total time  =         10 seconds =       0.17 minutes
Total time:
	user time   =       9.86 seconds =       0.16 minutes
	system time =       0.06 seconds =       0.00 minutes
	total time  =         10 seconds =       0.17 minutes


Properties will be evaluated at   0.000000,   0.000000,   0.000000 Bohr

Properties computed using the  density matrix

  Nuclear Dipole Moment: (a.u.)
     X:   -12.0378      Y:    -2.6537      Z:    -2.3548

  Electronic Dipole Moment: (a.u.)
     X:    11.7978      Y:     2.2858      Z:     1.6301

  Dipole Moment: (a.u.)
     X:    -0.2400      Y:    -0.3679      Z:    -0.7247     Total:     0.8475

  Dipole Moment: (Debye)
     X:    -0.6100      Y:    -0.9351      Z:    -1.8421     Total:     2.1541

  Quadrupole Moment: (Debye Ang)
    XX:   -45.9255     YY:   -44.2912     ZZ:   -43.4598
    XY:    -3.1939     XZ:     0.8666     YZ:     0.5489

  Traceless Quadrupole Moment: (Debye Ang)
    XX:    -1.3667     YY:     0.2677     ZZ:     1.0990
    XY:    -3.1939     XZ:     0.8666     YZ:     0.5489

  Mulliken Charges: (a.u.)
   Center  Symbol    Alpha    Beta     Spin     Total
       1     H     0.40733  0.40733  0.00000  0.18535
       2     C     3.23623  3.23623  0.00000 -0.47246
       3     C     2.89262  2.89262  0.00000  0.21475
       4     H     0.40190  0.40190  0.00000  0.19620
       5     O     4.30090  4.30090  0.00000 -0.60179
       6     H     0.40839  0.40839  0.00000  0.18322
       7     C     3.07480  3.07480  0.00000 -0.14961
       8     C     2.44716  2.44716  0.00000  1.10568
       9     H     0.40564  0.40564  0.00000  0.18872
      10     H     0.38673  0.38673  0.00000  0.22654
      11     F     4.68135  4.68135  0.00000 -0.36269
      12     F     4.68187  4.68187  0.00000 -0.36374
      13     F     4.67509  4.67509  0.00000 -0.35018

   Total alpha = 32.00000, Total beta = 32.00000, Total charge =  0.00000


*** PSI4 exiting successfully. Buy a developer a beer!
