    -----------------------------------------------------------------------
          Psi4: An Open-Source Ab Initio Electronic Structure Package
                              Psi4 (no tag) Driver

                          Git: Rev {detached?}  

    J. M. Turney, A. C. Simmonett, R. M. Parrish, E. G. Hohenstein,
    F. A. Evangelista, J. T. Fermann, B. J. Mintz, L. A. Burns, J. J. Wilke,
    M. L. Abrams, N. J. Russ, M. L. Leininger, C. L. Janssen, E. T. Seidl,
    W. D. Allen, H. F. Schaefer, R. A. King, E. F. Valeev, C. D. Sherrill,
    and T. D. Crawford, WIREs Comput. Mol. Sci. 2, 556-565 (2012)
    (doi: 10.1002/wcms.93)

                         Additional Contributions by
    A. E. DePrince, M. Saitow, U. Bozkaya, A. Yu. Sokolov
    -----------------------------------------------------------------------


    Psi4 started on: Tue Jul  5 16:43:34 2016

    Process ID:  23527
    PSI4DATADIR: /export131/home/mjharvey/miniconda3/share
    Memory level set to 256.000 MB

  ==> Input File <==

--------------------------------------------------------------------------
set {
	reference rhf
	basis 6-31G*
}


set_num_threads( 1 )
memory 2 gb

molecule MOL {
0 1

H	 1.585952	 -4.568302	 3.399427
C	 1.641209	 -3.748105	 2.707115
C	 0.668518	 -3.585831	 1.726420
C	 2.677555	 -2.840066	 2.777133
H	 -0.146648	 -4.284042	 1.656888
C	 0.736054	 -2.535355	 0.836961
H	 3.438900	 -2.949709	 3.529076
C	 2.760232	 -1.774514	 1.887064
H	 -0.008383	 -2.398316	 0.074814
C	 1.785506	 -1.622119	 0.913532
H	 3.578277	 -1.085271	 1.967154
O	 1.765256	 -0.628444	 0.000000
C	 2.778419	 0.335181	 0.000000
H	 2.731280	 0.961222	 -0.884976
H	 3.711703	 -0.207767	 0.000000
H	 2.731280	 0.961222	 0.884976

	symmetry c1
}
set optking {
	frozen_dihedral = ("
		13 12 10 8
	")
}

ee = energy('scf')
oeprop('DIPOLE', 'QUADRUPOLE', 'MULLIKEN_CHARGES')
f=open( 'psi4out.xyz', 'w' )
f.write( "16  " )
f.write( str(ee) + "\n" )
f.write( MOL.save_string_xyz() )
f.close()
--------------------------------------------------------------------------

  Memory set to   2.000 GiB by Python script.

*** tstart() called on cx1-3-2-1.cx1.hpc.ic.ac.uk
*** at Tue Jul  5 16:43:34 2016


         ---------------------------------------------------------
                                   SCF
            by Justin Turney, Rob Parrish, and Andy Simmonett
                              RHF Reference
                        1 Threads,   2000 MiB Core
         ---------------------------------------------------------

  ==> Geometry <==

    Molecular point group: c1
    Full point group: C1

    Geometry (in Angstrom), charge = 0, multiplicity = 1:

       Center              X                  Y                   Z               Mass       
    ------------   -----------------  -----------------  -----------------  -----------------
           H         -0.288654238852    -2.597325963877     2.095591551012     1.007825032070
           C         -0.233397238852    -1.777128963877     1.403279551012    12.000000000000
           C         -1.206088238852    -1.614854963877     0.422584551012    12.000000000000
           C          0.802948761148    -0.869089963877     1.473297551012    12.000000000000
           H         -2.021254238852    -2.313065963877     0.353052551012     1.007825032070
           C         -1.138552238852    -0.564378963877    -0.466874448988    12.000000000000
           H          1.564293761148    -0.978732963877     2.225240551012     1.007825032070
           C          0.885625761148     0.196462036123     0.583228551012    12.000000000000
           H         -1.882989238852    -0.427339963877    -1.229021448988     1.007825032070
           C         -0.089100238852     0.348857036123    -0.390303448988    12.000000000000
           H          1.703670761148     0.885705036123     0.663318551012     1.007825032070
           O         -0.109350238852     1.342532036123    -1.303835448988    15.994914619560
           C          0.903812761148     2.306157036123    -1.303835448988    12.000000000000
           H          0.856673761148     2.932198036123    -2.188811448988     1.007825032070
           H          1.837096761148     1.763209036123    -1.303835448988     1.007825032070
           H          0.856673761148     2.932198036123    -0.418859448988     1.007825032070

  Running in c1 symmetry.

  Rotational constants: A =      0.17188  B =      0.05271  C =      0.04064 [cm^-1]
  Rotational constants: A =   5152.74206  B =   1580.07492  C =   1218.39440 [MHz]
  Nuclear repulsion =  348.288105240935522

  Charge       = 0
  Multiplicity = 1
  Electrons    = 58
  Nalpha       = 29
  Nbeta        = 29

  ==> Algorithm <==

  SCF Algorithm Type is DF.
  DIIS enabled.
  MOM disabled.
  Fractional occupation disabled.
  Guess Type is CORE.
  Energy threshold   = 1.00e-06
  Density threshold  = 1.00e-06
  Integral threshold = 0.00e+00

  ==> Primary Basis <==

  Basis Set: 6-31G*
    Number of shells: 64
    Number of basis function: 136
    Number of Cartesian functions: 136
    Spherical Harmonics?: false
    Max angular momentum: 2

  ==> Pre-Iterations <==

   -------------------------------------------------------
    Irrep   Nso     Nmo     Nalpha   Nbeta   Ndocc  Nsocc
   -------------------------------------------------------
     A        136     136       0       0       0       0
   -------------------------------------------------------
    Total     136     136      29      29      29       0
   -------------------------------------------------------

 OEINTS: Overlap, kinetic, potential, dipole, and quadrupole integrals
         stored in file 35.

  ==> Integral Setup <==

  ==> DFJK: Density-Fitted J/K Matrices <==

    J tasked:                  Yes
    K tasked:                  Yes
    wK tasked:                  No
    OpenMP threads:              1
    Integrals threads:           1
    Memory (MB):              1430
    Algorithm:                Core
    Integral Cache:           NONE
    Schwarz Cutoff:          1E-12
    Fitting Condition:       1E-12

   => Auxiliary Basis Set <=

  Basis Set: 
    Number of shells: 264
    Number of basis function: 848
    Number of Cartesian functions: 848
    Spherical Harmonics?: false
    Max angular momentum: 3

  Minimum eigenvalue in the overlap matrix is 4.4564100797E-04.
  Using Symmetric Orthogonalization.
  SCF Guess: Core (One-Electron) Hamiltonian.

  ==> Iterations <==

                           Total Energy        Delta E     RMS |[F,P]|

   @DF-RHF iter   1:  -265.47155706079315   -2.65472e+02   7.05231e-02 
   @DF-RHF iter   2:  -246.18127111683549    1.92903e+01   5.40860e-02 DIIS
   @DF-RHF iter   3:  -320.42184017923813   -7.42406e+01   3.59185e-02 DIIS
   @DF-RHF iter   4:  -339.30965808001287   -1.88878e+01   2.12311e-02 DIIS
   @DF-RHF iter   5:  -343.35188190120260   -4.04222e+00   1.12018e-02 DIIS
   @DF-RHF iter   6:  -344.52045378087445   -1.16857e+00   2.24060e-03 DIIS
   @DF-RHF iter   7:  -344.57084536975475   -5.03916e-02   7.99800e-04 DIIS
   @DF-RHF iter   8:  -344.57922694422786   -8.38157e-03   2.39307e-04 DIIS
   @DF-RHF iter   9:  -344.58009037441349   -8.63430e-04   9.18636e-05 DIIS
   @DF-RHF iter  10:  -344.58021256218302   -1.22188e-04   2.38348e-05 DIIS
   @DF-RHF iter  11:  -344.58022951261540   -1.69504e-05   1.06699e-05 DIIS
   @DF-RHF iter  12:  -344.58023313718758   -3.62457e-06   4.51317e-06 DIIS
   @DF-RHF iter  13:  -344.58023403033411   -8.93147e-07   1.89475e-06 DIIS
   @DF-RHF iter  14:  -344.58023425652817   -2.26194e-07   6.18303e-07 DIIS

  ==> Post-Iterations <==

    Orbital Energies (a.u.)
    -----------------------

    Doubly Occupied:                                                      

       1A    -20.583797     2A    -11.294853     3A    -11.280272  
       4A    -11.232899     5A    -11.231458     6A    -11.223731  
       7A    -11.219341     8A    -11.219259     9A     -1.413892  
      10A     -1.145802    11A     -1.021620    12A     -1.012514  
      13A     -0.941946    14A     -0.830299    15A     -0.804688  
      16A     -0.721023    17A     -0.664105    18A     -0.662653  
      19A     -0.656956    20A     -0.616913    21A     -0.588108  
      22A     -0.577486    23A     -0.523564    24A     -0.518040  
      25A     -0.509899    26A     -0.473442    27A     -0.461370  
      28A     -0.334706    29A     -0.304811  

    Virtual:                                                              

      30A      0.146699    31A      0.165850    32A      0.237459  
      33A      0.257271    34A      0.296270    35A      0.304364  
      36A      0.312015    37A      0.325254    38A      0.331798  
      39A      0.341262    40A      0.364601    41A      0.382240  
      42A      0.454045    43A      0.482852    44A      0.489488  
      45A      0.533559    46A      0.559810    47A      0.660593  
      48A      0.718371    49A      0.737490    50A      0.754736  
      51A      0.758332    52A      0.764217    53A      0.819875  
      54A      0.832147    55A      0.837149    56A      0.843923  
      57A      0.847433    58A      0.851825    59A      0.859545  
      60A      0.894226    61A      0.917393    62A      0.929098  
      63A      1.003831    64A      1.014478    65A      1.103605  
      66A      1.117257    67A      1.118710    68A      1.125513  
      69A      1.131816    70A      1.143001    71A      1.170036  
      72A      1.187569    73A      1.206731    74A      1.215206  
      75A      1.238683    76A      1.275950    77A      1.290491  
      78A      1.334305    79A      1.342428    80A      1.378239  
      81A      1.446123    82A      1.465693    83A      1.508747  
      84A      1.548793    85A      1.614460    86A      1.630862  
      87A      1.690599    88A      1.717582    89A      1.731905  
      90A      1.742786    91A      1.777329    92A      1.799085  
      93A      1.822509    94A      1.962366    95A      2.069296  
      96A      2.124876    97A      2.142617    98A      2.177300  
      99A      2.200904   100A      2.279382   101A      2.318028  
     102A      2.329204   103A      2.332777   104A      2.421260  
     105A      2.448123   106A      2.456267   107A      2.475671  
     108A      2.493894   109A      2.506701   110A      2.553340  
     111A      2.585833   112A      2.614103   113A      2.653059  
     114A      2.703556   115A      2.732709   116A      2.871887  
     117A      2.912991   118A      2.941933   119A      3.002211  
     120A      3.035748   121A      3.041715   122A      3.106440  
     123A      3.122773   124A      3.151106   125A      3.282437  
     126A      3.363317   127A      3.592847   128A      3.850220  
     129A      4.488514   130A      4.534388   131A      4.550000  
     132A      4.643760   133A      4.744692   134A      4.782370  
     135A      4.886065   136A      5.189027  

    Final Occupation by Irrep:
              A 
    DOCC [    29 ]

  Energy converged.

  @DF-RHF Final Energy:  -344.58023425652817

   => Energetics <=

    Nuclear Repulsion Energy =            348.2881052409355220
    One-Electron Energy =               -1157.5975164542010134
    Two-Electron Energy =                 464.7291769567367510
    DFT Exchange-Correlation Energy =       0.0000000000000000
    Empirical Dispersion Energy =           0.0000000000000000
    PCM Polarization Energy =               0.0000000000000000
    EFP Energy =                            0.0000000000000000
    Total Energy =                       -344.5802342565287972

    Alert: EFP and PCM quantities not currently incorporated into SCF psivars.

Properties will be evaluated at   0.000000,   0.000000,   0.000000 Bohr
  ==> Properties <==


Properties computed using the SCF density matrix

  Nuclear Dipole Moment: (a.u.)
     X:     2.4608      Y:     2.0659      Z:     0.1781

  Electronic Dipole Moment: (a.u.)
     X:    -2.0111      Y:    -1.8123      Z:    -0.0310

  Dipole Moment: (a.u.)
     X:     0.4497      Y:     0.2536      Z:     0.1471     Total:     0.5369

  Dipole Moment: (Debye)
     X:     1.1431      Y:     0.6446      Z:     0.3738     Total:     1.3646


  Saving occupied orbitals to File 180.

*** tstop() called on cx1-3-2-1.cx1.hpc.ic.ac.uk at Tue Jul  5 16:43:46 2016
Module time:
	user time   =      11.59 seconds =       0.19 minutes
	system time =       0.09 seconds =       0.00 minutes
	total time  =         12 seconds =       0.20 minutes
Total time:
	user time   =      11.59 seconds =       0.19 minutes
	system time =       0.09 seconds =       0.00 minutes
	total time  =         12 seconds =       0.20 minutes


Properties will be evaluated at   0.000000,   0.000000,   0.000000 Bohr

Properties computed using the  density matrix

  Nuclear Dipole Moment: (a.u.)
     X:     2.4608      Y:     2.0659      Z:     0.1781

  Electronic Dipole Moment: (a.u.)
     X:    -2.0111      Y:    -1.8123      Z:    -0.0310

  Dipole Moment: (a.u.)
     X:     0.4497      Y:     0.2536      Z:     0.1471     Total:     0.5369

  Dipole Moment: (Debye)
     X:     1.1431      Y:     0.6446      Z:     0.3738     Total:     1.3646

  Quadrupole Moment: (Debye Ang)
    XX:   -44.6646     YY:   -42.7602     ZZ:   -47.5578
    XY:     5.2858     XZ:     0.8547     YZ:    -3.1067

  Traceless Quadrupole Moment: (Debye Ang)
    XX:     0.3296     YY:     2.2340     ZZ:    -2.5636
    XY:     5.2858     XZ:     0.8547     YZ:    -3.1067

  Mulliken Charges: (a.u.)
   Center  Symbol    Alpha    Beta     Spin     Total
       1     H     0.40125  0.40125  0.00000  0.19750
       2     C     3.11207  3.11207  0.00000 -0.22415
       3     C     3.09183  3.09183  0.00000 -0.18367
       4     C     3.09098  3.09098  0.00000 -0.18196
       5     H     0.39870  0.39870  0.00000  0.20259
       6     C     3.12548  3.12548  0.00000 -0.25095
       7     H     0.39964  0.39964  0.00000  0.20071
       8     C     3.14590  3.14590  0.00000 -0.29180
       9     H     0.39274  0.39274  0.00000  0.21453
      10     C     2.78168  2.78168  0.00000  0.43665
      11     H     0.39702  0.39702  0.00000  0.20597
      12     O     4.32714  4.32714  0.00000 -0.65428
      13     C     3.09123  3.09123  0.00000 -0.18245
      14     H     0.40431  0.40431  0.00000  0.19137
      15     H     0.42072  0.42072  0.00000  0.15857
      16     H     0.41931  0.41931  0.00000  0.16138

   Total alpha = 29.00000, Total beta = 29.00000, Total charge = -0.00000


*** PSI4 exiting successfully. Buy a developer a beer!
