    -----------------------------------------------------------------------
          Psi4: An Open-Source Ab Initio Electronic Structure Package
                              Psi4 (no tag) Driver

                          Git: Rev {detached?}  

    J. M. Turney, A. C. Simmonett, R. M. Parrish, E. G. Hohenstein,
    F. A. Evangelista, J. T. Fermann, B. J. Mintz, L. A. Burns, J. J. Wilke,
    M. L. Abrams, N. J. Russ, M. L. Leininger, C. L. Janssen, E. T. Seidl,
    W. D. Allen, H. F. Schaefer, R. A. King, E. F. Valeev, C. D. Sherrill,
    and T. D. Crawford, WIREs Comput. Mol. Sci. 2, 556-565 (2012)
    (doi: 10.1002/wcms.93)

                         Additional Contributions by
    A. E. DePrince, M. Saitow, U. Bozkaya, A. Yu. Sokolov
    -----------------------------------------------------------------------


    Psi4 started on: Tue Jul  5 16:49:12 2016

    Process ID:   2621
    PSI4DATADIR: /export131/home/mjharvey/miniconda3/share
    Memory level set to 256.000 MB

  ==> Input File <==

--------------------------------------------------------------------------
set {
	reference rhf
	basis 6-31G*
}


set_num_threads( 1 )
memory 2 gb

molecule MOL {
0 1

H	 -3.892951	 0.981613	 -0.358725
C	 -3.196921	 0.361773	 0.172313
C	 -2.076860	 -0.007332	 -0.404944
H	 -3.439953	 0.057760	 1.173024
O	 -1.180634	 -0.819263	 0.215062
H	 -1.811520	 0.292194	 -1.403480
C	 0.051604	 -1.018856	 -0.387932
C	 1.043764	 0.054862	 -0.001873
H	 -0.017620	 -1.041351	 -1.469781
H	 0.437898	 -1.966374	 -0.042284
F	 0.390283	 1.148837	 0.361427
F	 1.799283	 -0.318742	 1.017657
F	 1.843120	 0.371880	 -0.999330

	symmetry c1
}
set optking {
	frozen_dihedral = ("
		3 5 7 9,
		6 3 2 1,
		6 3 5 7
	")
}

ee = energy('scf')
oeprop('DIPOLE', 'QUADRUPOLE', 'MULLIKEN_CHARGES')
f=open( 'psi4out.xyz', 'w' )
f.write( "13  " )
f.write( str(ee) + "\n" )
f.write( MOL.save_string_xyz() )
f.close()
--------------------------------------------------------------------------

  Memory set to   2.000 GiB by Python script.

*** tstart() called on cx1-3-14-4.cx1.hpc.ic.ac.uk
*** at Tue Jul  5 16:49:12 2016


         ---------------------------------------------------------
                                   SCF
            by Justin Turney, Rob Parrish, and Andy Simmonett
                              RHF Reference
                        1 Threads,   2000 MiB Core
         ---------------------------------------------------------

  ==> Geometry <==

    Molecular point group: c1
    Full point group: C1

    Geometry (in Angstrom), charge = 0, multiplicity = 1:

       Center              X                  Y                   Z               Mass       
    ------------   -----------------  -----------------  -----------------  -----------------
           H         -3.883406278829     0.975839308637    -0.367196824066     1.007825032070
           C         -3.187376278829     0.355999308637     0.163841175934    12.000000000000
           C         -2.067315278829    -0.013105691363    -0.413415824066    12.000000000000
           H         -3.430408278829     0.051986308637     1.164552175934     1.007825032070
           O         -1.171089278829    -0.825036691363     0.206590175934    15.994914619560
           H         -1.801975278829     0.286420308637    -1.411951824066     1.007825032070
           C          0.061148721171    -1.024629691363    -0.396403824066    12.000000000000
           C          1.053308721171     0.049088308637    -0.010344824066    12.000000000000
           H         -0.008075278829    -1.047124691363    -1.478252824066     1.007825032070
           H          0.447442721171    -1.972147691363    -0.050755824066     1.007825032070
           F          0.399827721171     1.143063308637     0.352955175934    18.998403224000
           F          1.808827721171    -0.324515691363     1.009185175934    18.998403224000
           F          1.852664721171     0.366106308637    -1.007801824066    18.998403224000

  Running in c1 symmetry.

  Rotational constants: A =      0.15054  B =      0.04005  C =      0.03918 [cm^-1]
  Rotational constants: A =   4513.06341  B =   1200.63409  C =   1174.60383 [MHz]
  Nuclear repulsion =  414.668287481696098

  Charge       = 0
  Multiplicity = 1
  Electrons    = 64
  Nalpha       = 32
  Nbeta        = 32

  ==> Algorithm <==

  SCF Algorithm Type is DF.
  DIIS enabled.
  MOM disabled.
  Fractional occupation disabled.
  Guess Type is CORE.
  Energy threshold   = 1.00e-06
  Density threshold  = 1.00e-06
  Integral threshold = 0.00e+00

  ==> Primary Basis <==

  Basis Set: 6-31G*
    Number of shells: 58
    Number of basis function: 130
    Number of Cartesian functions: 130
    Spherical Harmonics?: false
    Max angular momentum: 2

  ==> Pre-Iterations <==

   -------------------------------------------------------
    Irrep   Nso     Nmo     Nalpha   Nbeta   Ndocc  Nsocc
   -------------------------------------------------------
     A        130     130       0       0       0       0
   -------------------------------------------------------
    Total     130     130      32      32      32       0
   -------------------------------------------------------

 OEINTS: Overlap, kinetic, potential, dipole, and quadrupole integrals
         stored in file 35.

  ==> Integral Setup <==

  ==> DFJK: Density-Fitted J/K Matrices <==

    J tasked:                  Yes
    K tasked:                  Yes
    wK tasked:                  No
    OpenMP threads:              1
    Integrals threads:           1
    Memory (MB):              1430
    Algorithm:                Core
    Integral Cache:           NONE
    Schwarz Cutoff:          1E-12
    Fitting Condition:       1E-12

   => Auxiliary Basis Set <=

  Basis Set: 
    Number of shells: 237
    Number of basis function: 773
    Number of Cartesian functions: 773
    Spherical Harmonics?: false
    Max angular momentum: 3

  Minimum eigenvalue in the overlap matrix is 1.7174603400E-03.
  Using Symmetric Orthogonalization.
  SCF Guess: Core (One-Electron) Hamiltonian.

  ==> Iterations <==

                           Total Energy        Delta E     RMS |[F,P]|

   @DF-RHF iter   1:  -440.69458993716034   -4.40695e+02   7.40310e-02 
   @DF-RHF iter   2:  -176.34504293942473    2.64350e+02   9.71746e-02 DIIS
   @DF-RHF iter   3:  -490.75312176389070   -3.14408e+02   3.95419e-02 DIIS
   @DF-RHF iter   4:  -422.00921259674033    6.87439e+01   6.65634e-02 DIIS
   @DF-RHF iter   5:  -524.02464629631413   -1.02015e+02   1.55683e-02 DIIS
   @DF-RHF iter   6:  -527.10165425846981   -3.07701e+00   7.88058e-03 DIIS
   @DF-RHF iter   7:  -527.50360402578679   -4.01950e-01   1.61315e-03 DIIS
   @DF-RHF iter   8:  -527.52281735116992   -1.92133e-02   7.94576e-04 DIIS
   @DF-RHF iter   9:  -527.52836853463532   -5.55118e-03   3.83136e-04 DIIS
   @DF-RHF iter  10:  -527.52959768900155   -1.22915e-03   1.99960e-04 DIIS
   @DF-RHF iter  11:  -527.53005088490499   -4.53196e-04   3.81158e-05 DIIS
   @DF-RHF iter  12:  -527.53007178595749   -2.09011e-05   1.38651e-05 DIIS
   @DF-RHF iter  13:  -527.53007540174133   -3.61578e-06   5.91599e-06 DIIS
   @DF-RHF iter  14:  -527.53007593880398   -5.37063e-07   1.52458e-06 DIIS
   @DF-RHF iter  15:  -527.53007599267630   -5.38723e-08   6.09330e-07 DIIS

  ==> Post-Iterations <==

    Orbital Energies (a.u.)
    -----------------------

    Doubly Occupied:                                                      

       1A    -26.347979     2A    -26.340702     3A    -26.337842  
       4A    -20.606236     5A    -11.502892     6A    -11.317161  
       7A    -11.298655     8A    -11.214579     9A     -1.741776  
      10A     -1.641976    11A     -1.635326    12A     -1.436154  
      13A     -1.083674    14A     -1.015658    15A     -0.924306  
      16A     -0.837935    17A     -0.829559    18A     -0.820298  
      19A     -0.791036    20A     -0.724591    21A     -0.714699  
      22A     -0.694505    23A     -0.674511    24A     -0.662205  
      25A     -0.654750    26A     -0.642034    27A     -0.622661  
      28A     -0.582880    29A     -0.561302    30A     -0.525208  
      31A     -0.512568    32A     -0.350465  

    Virtual:                                                              

      33A      0.191286    34A      0.230331    35A      0.269940  
      36A      0.278666    37A      0.293741    38A      0.311655  
      39A      0.343408    40A      0.409543    41A      0.429859  
      42A      0.450801    43A      0.477520    44A      0.509726  
      45A      0.540527    46A      0.691915    47A      0.699619  
      48A      0.723551    49A      0.740272    50A      0.757425  
      51A      0.772849    52A      0.813386    53A      0.819531  
      54A      0.880061    55A      0.906961    56A      0.923940  
      57A      0.983184    58A      1.074972    59A      1.098878  
      60A      1.134083    61A      1.146469    62A      1.153162  
      63A      1.203948    64A      1.231993    65A      1.244333  
      66A      1.322592    67A      1.349989    68A      1.373130  
      69A      1.412066    70A      1.435195    71A      1.448414  
      72A      1.472094    73A      1.586432    74A      1.611935  
      75A      1.632028    76A      1.651349    77A      1.667588  
      78A      1.672614    79A      1.684253    80A      1.742116  
      81A      1.760802    82A      1.804220    83A      1.861476  
      84A      1.915988    85A      1.939732    86A      1.988346  
      87A      2.024982    88A      2.060830    89A      2.112675  
      90A      2.132959    91A      2.141985    92A      2.152199  
      93A      2.242989    94A      2.251519    95A      2.259727  
      96A      2.296286    97A      2.309832    98A      2.324915  
      99A      2.351426   100A      2.400588   101A      2.409235  
     102A      2.416117   103A      2.461317   104A      2.510218  
     105A      2.554333   106A      2.580441   107A      2.668384  
     108A      2.699764   109A      2.727579   110A      2.819373  
     111A      2.883152   112A      2.930457   113A      2.992074  
     114A      3.090306   115A      3.129942   116A      3.175279  
     117A      3.205091   118A      3.294595   119A      3.415320  
     120A      3.427282   121A      3.446088   122A      3.477683  
     123A      4.351407   124A      4.539012   125A      4.602109  
     126A      4.730419   127A      4.903466   128A      4.962363  
     129A      5.054797   130A      5.868286  

    Final Occupation by Irrep:
              A 
    DOCC [    32 ]

  Energy converged.

  @DF-RHF Final Energy:  -527.53007599267630

   => Energetics <=

    Nuclear Repulsion Energy =            414.6682874816960975
    One-Electron Energy =               -1553.1045089373055816
    Two-Electron Energy =                 610.9061454629334094
    DFT Exchange-Correlation Energy =       0.0000000000000000
    Empirical Dispersion Energy =           0.0000000000000000
    PCM Polarization Energy =               0.0000000000000000
    EFP Energy =                            0.0000000000000000
    Total Energy =                       -527.5300759926760747

    Alert: EFP and PCM quantities not currently incorporated into SCF psivars.

Properties will be evaluated at   0.000000,   0.000000,   0.000000 Bohr
  ==> Properties <==


Properties computed using the SCF density matrix

  Nuclear Dipole Moment: (a.u.)
     X:   -11.9708      Y:    -2.7199      Z:    -2.3428

  Electronic Dipole Moment: (a.u.)
     X:    11.7716      Y:     2.3230      Z:     1.6183

  Dipole Moment: (a.u.)
     X:    -0.1991      Y:    -0.3969      Z:    -0.7246     Total:     0.8498

  Dipole Moment: (Debye)
     X:    -0.5061      Y:    -1.0088      Z:    -1.8417     Total:     2.1601


  Saving occupied orbitals to File 180.

*** tstop() called on cx1-3-14-4.cx1.hpc.ic.ac.uk at Tue Jul  5 16:49:22 2016
Module time:
	user time   =       9.40 seconds =       0.16 minutes
	system time =       0.06 seconds =       0.00 minutes
	total time  =         10 seconds =       0.17 minutes
Total time:
	user time   =       9.40 seconds =       0.16 minutes
	system time =       0.06 seconds =       0.00 minutes
	total time  =         10 seconds =       0.17 minutes


Properties will be evaluated at   0.000000,   0.000000,   0.000000 Bohr

Properties computed using the  density matrix

  Nuclear Dipole Moment: (a.u.)
     X:   -11.9708      Y:    -2.7199      Z:    -2.3428

  Electronic Dipole Moment: (a.u.)
     X:    11.7716      Y:     2.3230      Z:     1.6183

  Dipole Moment: (a.u.)
     X:    -0.1991      Y:    -0.3969      Z:    -0.7246     Total:     0.8498

  Dipole Moment: (Debye)
     X:    -0.5061      Y:    -1.0088      Z:    -1.8417     Total:     2.1601

  Quadrupole Moment: (Debye Ang)
    XX:   -45.8183     YY:   -44.3265     ZZ:   -43.4022
    XY:    -3.2868     XZ:     0.8123     YZ:     0.5526

  Traceless Quadrupole Moment: (Debye Ang)
    XX:    -1.3026     YY:     0.1892     ZZ:     1.1134
    XY:    -3.2868     XZ:     0.8123     YZ:     0.5526

  Mulliken Charges: (a.u.)
   Center  Symbol    Alpha    Beta     Spin     Total
       1     H     0.40755  0.40755  0.00000  0.18490
       2     C     3.23625  3.23625  0.00000 -0.47250
       3     C     2.89234  2.89234  0.00000  0.21532
       4     H     0.40203  0.40203  0.00000  0.19594
       5     O     4.29947  4.29947  0.00000 -0.59894
       6     H     0.40880  0.40880  0.00000  0.18241
       7     C     3.08065  3.08065  0.00000 -0.16129
       8     C     2.44371  2.44371  0.00000  1.11259
       9     H     0.40338  0.40338  0.00000  0.19325
      10     H     0.38702  0.38702  0.00000  0.22597
      11     F     4.67903  4.67903  0.00000 -0.35805
      12     F     4.68015  4.68015  0.00000 -0.36030
      13     F     4.67965  4.67965  0.00000 -0.35930

   Total alpha = 32.00000, Total beta = 32.00000, Total charge = -0.00000


*** PSI4 exiting successfully. Buy a developer a beer!
