    -----------------------------------------------------------------------
          Psi4: An Open-Source Ab Initio Electronic Structure Package
                              Psi4 (no tag) Driver

                          Git: Rev {detached?}  

    J. M. Turney, A. C. Simmonett, R. M. Parrish, E. G. Hohenstein,
    F. A. Evangelista, J. T. Fermann, B. J. Mintz, L. A. Burns, J. J. Wilke,
    M. L. Abrams, N. J. Russ, M. L. Leininger, C. L. Janssen, E. T. Seidl,
    W. D. Allen, H. F. Schaefer, R. A. King, E. F. Valeev, C. D. Sherrill,
    and T. D. Crawford, WIREs Comput. Mol. Sci. 2, 556-565 (2012)
    (doi: 10.1002/wcms.93)

                         Additional Contributions by
    A. E. DePrince, M. Saitow, U. Bozkaya, A. Yu. Sokolov
    -----------------------------------------------------------------------


    Psi4 started on: Tue Jul  5 16:42:54 2016

    Process ID:   1470
    PSI4DATADIR: /export131/home/mjharvey/miniconda3/share
    Memory level set to 256.000 MB

  ==> Input File <==

--------------------------------------------------------------------------
set {
	reference rhf
	basis 6-31G*
}


set_num_threads( 1 )
memory 2 gb

molecule MOL {
0 1

H	 1.783859	 -3.492090	 -1.379093
O	 1.311259	 -3.380832	 -2.191902
C	 -0.067447	 -3.476382	 -1.953097
C	 -0.479388	 -2.635359	 -0.757835
H	 -0.646773	 -3.182474	 -2.823935
H	 -0.280051	 -4.517061	 -1.752506
O	 -0.043959	 -1.331029	 -0.978982
H	 -0.035483	 -3.038347	 0.154596
H	 -1.560555	 -2.674354	 -0.638922
C	 -0.381609	 -0.813417	 -2.226865
H	 0.366496	 -0.106062	 -2.579876
H	 -0.435693	 -1.641239	 -2.920182
H	 -1.346371	 -0.311084	 -2.200645

	symmetry c1
}
set optking {
	frozen_dihedral = ("
		8 4 3 5,
		1 2 3 5,
		10 7 4 8
	")
}

ee = energy('scf')
oeprop('DIPOLE', 'QUADRUPOLE', 'MULLIKEN_CHARGES')
f=open( 'psi4out.xyz', 'w' )
f.write( "13  " )
f.write( str(ee) + "\n" )
f.write( MOL.save_string_xyz() )
f.close()
--------------------------------------------------------------------------

  Memory set to   2.000 GiB by Python script.

*** tstart() called on cx1-49-4-2.cx1.hpc.ic.ac.uk
*** at Tue Jul  5 16:42:54 2016


         ---------------------------------------------------------
                                   SCF
            by Justin Turney, Rob Parrish, and Andy Simmonett
                              RHF Reference
                        1 Threads,   2000 MiB Core
         ---------------------------------------------------------

  ==> Geometry <==

    Molecular point group: c1
    Full point group: C1

    Geometry (in Angstrom), charge = 0, multiplicity = 1:

       Center              X                  Y                   Z               Mass       
    ------------   -----------------  -----------------  -----------------  -----------------
           H          1.692374786329    -1.157137567928     0.254290667442     1.007825032070
           O          1.219774786329    -1.045879567928    -0.558518332558    15.994914619560
           C         -0.158931213671    -1.141429567928    -0.319713332558    12.000000000000
           C         -0.570872213671    -0.300406567928     0.875548667442    12.000000000000
           H         -0.738257213671    -0.847521567928    -1.190551332558     1.007825032070
           H         -0.371535213671    -2.182108567928    -0.119122332558     1.007825032070
           O         -0.135443213671     1.003923432072     0.654401667442    15.994914619560
           H         -0.126967213671    -0.703394567928     1.787979667442     1.007825032070
           H         -1.652039213671    -0.339401567928     0.994461667442     1.007825032070
           C         -0.473093213671     1.521535432072    -0.593481332558    12.000000000000
           H          0.275011786329     2.228890432072    -0.946492332558     1.007825032070
           H         -0.527177213671     0.693713432072    -1.286798332558     1.007825032070
           H         -1.437855213671     2.023868432072    -0.567261332558     1.007825032070

  Running in c1 symmetry.

  Rotational constants: A =      0.27807  B =      0.13065  C =      0.11196 [cm^-1]
  Rotational constants: A =   8336.39963  B =   3916.73932  C =   3356.57900 [MHz]
  Nuclear repulsion =  201.131611717515767

  Charge       = 0
  Multiplicity = 1
  Electrons    = 42
  Nalpha       = 21
  Nbeta        = 21

  ==> Algorithm <==

  SCF Algorithm Type is DF.
  DIIS enabled.
  MOM disabled.
  Fractional occupation disabled.
  Guess Type is CORE.
  Energy threshold   = 1.00e-06
  Density threshold  = 1.00e-06
  Integral threshold = 0.00e+00

  ==> Primary Basis <==

  Basis Set: 6-31G*
    Number of shells: 46
    Number of basis function: 91
    Number of Cartesian functions: 91
    Spherical Harmonics?: false
    Max angular momentum: 2

  ==> Pre-Iterations <==

   -------------------------------------------------------
    Irrep   Nso     Nmo     Nalpha   Nbeta   Ndocc  Nsocc
   -------------------------------------------------------
     A         91      91       0       0       0       0
   -------------------------------------------------------
    Total      91      91      21      21      21       0
   -------------------------------------------------------

 OEINTS: Overlap, kinetic, potential, dipole, and quadrupole integrals
         stored in file 35.

  ==> Integral Setup <==

  ==> DFJK: Density-Fitted J/K Matrices <==

    J tasked:                  Yes
    K tasked:                  Yes
    wK tasked:                  No
    OpenMP threads:              1
    Integrals threads:           1
    Memory (MB):              1430
    Algorithm:                Core
    Integral Cache:           NONE
    Schwarz Cutoff:          1E-12
    Fitting Condition:       1E-12

   => Auxiliary Basis Set <=

  Basis Set: 
    Number of shells: 192
    Number of basis function: 605
    Number of Cartesian functions: 605
    Spherical Harmonics?: false
    Max angular momentum: 3

  Minimum eigenvalue in the overlap matrix is 4.6287711704E-03.
  Using Symmetric Orthogonalization.
  SCF Guess: Core (One-Electron) Hamiltonian.

  ==> Iterations <==

                           Total Energy        Delta E     RMS |[F,P]|

   @DF-RHF iter   1:  -224.31339595106752   -2.24313e+02   7.94587e-02 
   @DF-RHF iter   2:  -184.31459887932564    3.99988e+01   7.05480e-02 DIIS
   @DF-RHF iter   3:  -247.86636824172686   -6.35518e+01   4.68886e-02 DIIS
   @DF-RHF iter   4:  -263.36373689653840   -1.54974e+01   2.93882e-02 DIIS
   @DF-RHF iter   5:  -267.56720460536087   -4.20347e+00   1.02505e-02 DIIS
   @DF-RHF iter   6:  -267.87909977367963   -3.11895e-01   3.12191e-03 DIIS
   @DF-RHF iter   7:  -267.91356477884347   -3.44650e-02   1.64574e-03 DIIS
   @DF-RHF iter   8:  -267.92451700153094   -1.09522e-02   4.95461e-04 DIIS
   @DF-RHF iter   9:  -267.92572398129812   -1.20698e-03   1.83006e-04 DIIS
   @DF-RHF iter  10:  -267.92588862611490   -1.64645e-04   4.40819e-05 DIIS
   @DF-RHF iter  11:  -267.92589898117365   -1.03551e-05   1.18526e-05 DIIS
   @DF-RHF iter  12:  -267.92589990980832   -9.28635e-07   3.36901e-06 DIIS
   @DF-RHF iter  13:  -267.92590000491350   -9.51052e-08   7.20034e-07 DIIS

  ==> Post-Iterations <==

    Orbital Energies (a.u.)
    -----------------------

    Doubly Occupied:                                                      

       1A    -20.557323     2A    -20.554940     3A    -11.278078  
       4A    -11.272908     5A    -11.259022     6A     -1.391663  
       7A     -1.357591     8A     -1.013862     9A     -0.940139  
      10A     -0.825737    11A     -0.707576    12A     -0.677563  
      13A     -0.674164    14A     -0.623255    15A     -0.609665  
      16A     -0.565439    17A     -0.541518    18A     -0.513360  
      19A     -0.457764    20A     -0.442970    21A     -0.409505  

    Virtual:                                                              

      22A      0.223228    23A      0.256475    24A      0.281477  
      25A      0.295086    26A      0.306090    27A      0.310088  
      28A      0.333800    29A      0.344838    30A      0.390036  
      31A      0.420165    32A      0.445438    33A      0.461296  
      34A      0.731537    35A      0.772052    36A      0.780113  
      37A      0.795062    38A      0.816610    39A      0.839259  
      40A      0.890293    41A      0.983389    42A      1.019401  
      43A      1.069100    44A      1.083443    45A      1.116538  
      46A      1.141876    47A      1.155780    48A      1.179915  
      49A      1.188560    50A      1.209619    51A      1.216325  
      52A      1.240409    53A      1.293221    54A      1.320475  
      55A      1.367069    56A      1.448887    57A      1.469518  
      58A      1.584671    59A      1.625851    60A      1.722355  
      61A      1.772933    62A      1.794184    63A      1.825831  
      64A      1.892903    65A      1.981752    66A      2.098733  
      67A      2.162955    68A      2.189182    69A      2.255936  
      70A      2.378193    71A      2.413283    72A      2.462173  
      73A      2.480360    74A      2.494838    75A      2.519970  
      76A      2.588740    77A      2.712721    78A      2.729637  
      79A      2.758044    80A      2.792761    81A      2.892935  
      82A      2.917458    83A      3.028006    84A      3.160756  
      85A      3.220036    86A      3.308560    87A      4.177188  
      88A      4.376518    89A      4.644732    90A      4.692984  
      91A      4.881717  

    Final Occupation by Irrep:
              A 
    DOCC [    21 ]

  Energy converged.

  @DF-RHF Final Energy:  -267.92590000491350

   => Energetics <=

    Nuclear Repulsion Energy =            201.1316117175157672
    One-Electron Energy =                -764.7668955177596217
    Two-Electron Energy =                 295.7093837953301545
    DFT Exchange-Correlation Energy =       0.0000000000000000
    Empirical Dispersion Energy =           0.0000000000000000
    PCM Polarization Energy =               0.0000000000000000
    EFP Energy =                            0.0000000000000000
    Total Energy =                       -267.9259000049137285

    Alert: EFP and PCM quantities not currently incorporated into SCF psivars.

Properties will be evaluated at   0.000000,   0.000000,   0.000000 Bohr
  ==> Properties <==


Properties computed using the SCF density matrix

  Nuclear Dipole Moment: (a.u.)
     X:    -2.7007      Y:    -0.2656      Z:    -1.0059

  Electronic Dipole Moment: (a.u.)
     X:     2.1540      Y:    -0.1750      Z:     1.2027

  Dipole Moment: (a.u.)
     X:    -0.5467      Y:    -0.4406      Z:     0.1968     Total:     0.7292

  Dipole Moment: (Debye)
     X:    -1.3896      Y:    -1.1199      Z:     0.5003     Total:     1.8535


  Saving occupied orbitals to File 180.

*** tstop() called on cx1-49-4-2.cx1.hpc.ic.ac.uk at Tue Jul  5 16:42:59 2016
Module time:
	user time   =       4.30 seconds =       0.07 minutes
	system time =       0.04 seconds =       0.00 minutes
	total time  =          5 seconds =       0.08 minutes
Total time:
	user time   =       4.30 seconds =       0.07 minutes
	system time =       0.04 seconds =       0.00 minutes
	total time  =          5 seconds =       0.08 minutes


Properties will be evaluated at   0.000000,   0.000000,   0.000000 Bohr

Properties computed using the  density matrix

  Nuclear Dipole Moment: (a.u.)
     X:    -2.7007      Y:    -0.2656      Z:    -1.0059

  Electronic Dipole Moment: (a.u.)
     X:     2.1540      Y:    -0.1750      Z:     1.2027

  Dipole Moment: (a.u.)
     X:    -0.5467      Y:    -0.4406      Z:     0.1968     Total:     0.7292

  Dipole Moment: (Debye)
     X:    -1.3896      Y:    -1.1199      Z:     0.5003     Total:     1.8535

  Quadrupole Moment: (Debye Ang)
    XX:   -30.7127     YY:   -31.3156     ZZ:   -31.9792
    XY:     0.0570     XZ:     3.3526     YZ:    -5.0509

  Traceless Quadrupole Moment: (Debye Ang)
    XX:     0.6231     YY:     0.0203     ZZ:    -0.6434
    XY:     0.0570     XZ:     3.3526     YZ:    -5.0509

  Mulliken Charges: (a.u.)
   Center  Symbol    Alpha    Beta     Spin     Total
       1     H     0.27853  0.27853  0.00000  0.44294
       2     O     4.36596  4.36596  0.00000 -0.73192
       3     C     3.02700  3.02700  0.00000 -0.05400
       4     C     3.00717  3.00717  0.00000 -0.01434
       5     H     0.40740  0.40740  0.00000  0.18519
       6     H     0.42351  0.42351  0.00000  0.15298
       7     O     4.30042  4.30042  0.00000 -0.60084
       8     H     0.41713  0.41713  0.00000  0.16574
       9     H     0.42728  0.42728  0.00000  0.14545
      10     C     3.07718  3.07718  0.00000 -0.15436
      11     H     0.41181  0.41181  0.00000  0.17637
      12     H     0.42712  0.42712  0.00000  0.14575
      13     H     0.42948  0.42948  0.00000  0.14103

   Total alpha = 21.00000, Total beta = 21.00000, Total charge =  0.00000


*** PSI4 exiting successfully. Buy a developer a beer!
