    -----------------------------------------------------------------------
          Psi4: An Open-Source Ab Initio Electronic Structure Package
                              Psi4 (no tag) Driver

                          Git: Rev {detached?}  

    J. M. Turney, A. C. Simmonett, R. M. Parrish, E. G. Hohenstein,
    F. A. Evangelista, J. T. Fermann, B. J. Mintz, L. A. Burns, J. J. Wilke,
    M. L. Abrams, N. J. Russ, M. L. Leininger, C. L. Janssen, E. T. Seidl,
    W. D. Allen, H. F. Schaefer, R. A. King, E. F. Valeev, C. D. Sherrill,
    and T. D. Crawford, WIREs Comput. Mol. Sci. 2, 556-565 (2012)
    (doi: 10.1002/wcms.93)

                         Additional Contributions by
    A. E. DePrince, M. Saitow, U. Bozkaya, A. Yu. Sokolov
    -----------------------------------------------------------------------


    Psi4 started on: Tue Jul  5 17:12:06 2016

    Process ID:   5677
    PSI4DATADIR: /export131/home/mjharvey/miniconda3/share
    Memory level set to 256.000 MB

  ==> Input File <==

--------------------------------------------------------------------------
set {
	reference rhf
	basis 6-31G*
}


set_num_threads( 1 )
memory 2 gb

molecule MOL {
0 1

O	 -0.499562	 1.692175	 1.841922
C	 -0.833093	 0.610524	 1.479901
C	 -1.522611	 -0.413109	 2.340765
O	 -0.632575	 0.154573	 0.251549
H	 -0.921947	 -1.314025	 2.390782
H	 -1.671304	 -0.012128	 3.332198
H	 -2.476746	 -0.678801	 1.900548
C	 0.160891	 -1.019931	 0.106212
C	 1.589627	 -0.672828	 0.480843
H	 0.089836	 -1.367806	 -0.916050
H	 -0.238459	 -1.792301	 0.749618
C	 1.722001	 0.048570	 1.823400
H	 1.992087	 -0.045559	 -0.311932
H	 2.181606	 -1.584278	 0.489726
C	 0.938030	 -0.641001	 2.939143
H	 2.773202	 0.101679	 2.099546
H	 1.378146	 1.072119	 1.716299
H	 1.047027	 -0.110418	 3.879693
H	 1.283598	 -1.659565	 3.092076
H	 -0.121838	 -0.683666	 2.704755

	symmetry c1
}
set optking {
	frozen_dihedral = ("
		16 12 9 8,
		2 4 8 10,
		12 9 8 10
	")
}

ee = energy('scf')
oeprop('DIPOLE', 'QUADRUPOLE', 'MULLIKEN_CHARGES')
f=open( 'psi4out.xyz', 'w' )
f.write( "20  " )
f.write( str(ee) + "\n" )
f.write( MOL.save_string_xyz() )
f.close()
--------------------------------------------------------------------------

  Memory set to   2.000 GiB by Python script.

*** tstart() called on cx1-1-1-1.cx1.hpc.ic.ac.uk
*** at Tue Jul  5 17:12:07 2016


         ---------------------------------------------------------
                                   SCF
            by Justin Turney, Rob Parrish, and Andy Simmonett
                              RHF Reference
                        1 Threads,   2000 MiB Core
         ---------------------------------------------------------

  ==> Geometry <==

    Molecular point group: c1
    Full point group: C1

    Geometry (in Angstrom), charge = 0, multiplicity = 1:

       Center              X                  Y                   Z               Mass       
    ------------   -----------------  -----------------  -----------------  -----------------
           O         -0.602130250167     1.723640715289     0.422079280295    15.994914619560
           C         -0.935661250167     0.641989715289     0.060058280295    12.000000000000
           C         -1.625179250167    -0.381643284711     0.920922280295    12.000000000000
           O         -0.735143250167     0.186038715289    -1.168293719705    15.994914619560
           H         -1.024515250167    -1.282559284711     0.970939280295     1.007825032070
           H         -1.773872250167     0.019337715289     1.912355280295     1.007825032070
           H         -2.579314250167    -0.647335284711     0.480705280295     1.007825032070
           C          0.058322749833    -0.988465284711    -1.313630719705    12.000000000000
           C          1.487058749833    -0.641362284711    -0.938999719705    12.000000000000
           H         -0.012732250167    -1.336340284711    -2.335892719705     1.007825032070
           H         -0.341027250167    -1.760835284711    -0.670224719705     1.007825032070
           C          1.619432749833     0.080035715289     0.403557280295    12.000000000000
           H          1.889518749833    -0.014093284711    -1.731774719705     1.007825032070
           H          2.079037749833    -1.552812284711    -0.930116719705     1.007825032070
           C          0.835461749833    -0.609535284711     1.519300280295    12.000000000000
           H          2.670633749833     0.133144715289     0.679703280295     1.007825032070
           H          1.275577749833     1.103584715289     0.296456280295     1.007825032070
           H          0.944458749833    -0.078952284711     2.459850280295     1.007825032070
           H          1.181029749833    -1.628099284711     1.672233280295     1.007825032070
           H         -0.224406250167    -0.652200284711     1.284912280295     1.007825032070

  Running in c1 symmetry.

  Rotational constants: A =      0.08790  B =      0.06913  C =      0.05738 [cm^-1]
  Rotational constants: A =   2635.21893  B =   2072.54780  C =   1720.28764 [MHz]
  Nuclear repulsion =  431.741054602522297

  Charge       = 0
  Multiplicity = 1
  Electrons    = 64
  Nalpha       = 32
  Nbeta        = 32

  ==> Algorithm <==

  SCF Algorithm Type is DF.
  DIIS enabled.
  MOM disabled.
  Fractional occupation disabled.
  Guess Type is CORE.
  Energy threshold   = 1.00e-06
  Density threshold  = 1.00e-06
  Integral threshold = 0.00e+00

  ==> Primary Basis <==

  Basis Set: 6-31G*
    Number of shells: 72
    Number of basis function: 144
    Number of Cartesian functions: 144
    Spherical Harmonics?: false
    Max angular momentum: 2

  ==> Pre-Iterations <==

   -------------------------------------------------------
    Irrep   Nso     Nmo     Nalpha   Nbeta   Ndocc  Nsocc
   -------------------------------------------------------
     A        144     144       0       0       0       0
   -------------------------------------------------------
    Total     144     144      32      32      32       0
   -------------------------------------------------------

 OEINTS: Overlap, kinetic, potential, dipole, and quadrupole integrals
         stored in file 35.

  ==> Integral Setup <==

  ==> DFJK: Density-Fitted J/K Matrices <==

    J tasked:                  Yes
    K tasked:                  Yes
    wK tasked:                  No
    OpenMP threads:              1
    Integrals threads:           1
    Memory (MB):              1430
    Algorithm:                Core
    Integral Cache:           NONE
    Schwarz Cutoff:          1E-12
    Fitting Condition:       1E-12

   => Auxiliary Basis Set <=

  Basis Set: 
    Number of shells: 300
    Number of basis function: 948
    Number of Cartesian functions: 948
    Spherical Harmonics?: false
    Max angular momentum: 3

  Minimum eigenvalue in the overlap matrix is 2.0001669334E-03.
  Using Symmetric Orthogonalization.
  SCF Guess: Core (One-Electron) Hamiltonian.

  ==> Iterations <==

                           Total Energy        Delta E     RMS |[F,P]|

   @DF-RHF iter   1:  -290.92111250406657   -2.90921e+02   7.27714e-02 
   @DF-RHF iter   2:  -276.73188447561421    1.41892e+01   5.38747e-02 DIIS
   @DF-RHF iter   3:  -328.51028436818348   -5.17784e+01   5.46075e-02 DIIS
   @DF-RHF iter   4:  -374.68156717790049   -4.61713e+01   2.13936e-02 DIIS
   @DF-RHF iter   5:  -380.56997293686715   -5.88841e+00   1.39766e-02 DIIS
   @DF-RHF iter   6:  -383.66975704707767   -3.09978e+00   3.28900e-03 DIIS
   @DF-RHF iter   7:  -383.76650164795313   -9.67446e-02   1.53658e-03 DIIS
   @DF-RHF iter   8:  -383.78402151104439   -1.75199e-02   7.26091e-04 DIIS
   @DF-RHF iter   9:  -383.78974497365920   -5.72346e-03   2.55054e-04 DIIS
   @DF-RHF iter  10:  -383.79054171799754   -7.96744e-04   1.03102e-04 DIIS
   @DF-RHF iter  11:  -383.79065786788266   -1.16150e-04   3.15533e-05 DIIS
   @DF-RHF iter  12:  -383.79067203432015   -1.41664e-05   8.63858e-06 DIIS
   @DF-RHF iter  13:  -383.79067291294160   -8.78621e-07   2.49730e-06 DIIS
   @DF-RHF iter  14:  -383.79067301650213   -1.03561e-07   7.33133e-07 DIIS

  ==> Post-Iterations <==

    Orbital Energies (a.u.)
    -----------------------

    Doubly Occupied:                                                      

       1A    -20.597373     2A    -20.556246     3A    -11.385560  
       4A    -11.300770     5A    -11.238655     6A    -11.225234  
       7A    -11.207470     8A    -11.186059     9A     -1.473798  
      10A     -1.377560    11A     -1.092975    12A     -1.070294  
      13A     -0.982112    14A     -0.911242    15A     -0.807392  
      16A     -0.772375    17A     -0.728249    18A     -0.705917  
      19A     -0.680768    20A     -0.652842    21A     -0.637891  
      22A     -0.596381    23A     -0.579255    24A     -0.561302  
      25A     -0.553158    26A     -0.532556    27A     -0.500376  
      28A     -0.470982    29A     -0.464887    30A     -0.451291  
      31A     -0.439022    32A     -0.419299  

    Virtual:                                                              

      33A      0.162288    34A      0.220459    35A      0.258385  
      36A      0.275056    37A      0.282789    38A      0.294087  
      39A      0.303764    40A      0.310699    41A      0.329097  
      42A      0.340825    43A      0.349194    44A      0.366186  
      45A      0.382479    46A      0.398096    47A      0.403991  
      48A      0.427070    49A      0.464646    50A      0.488300  
      51A      0.538685    52A      0.574226    53A      0.699424  
      54A      0.732136    55A      0.740013    56A      0.751617  
      57A      0.778516    58A      0.803350    59A      0.817662  
      60A      0.832679    61A      0.875360    62A      0.893648  
      63A      0.904962    64A      0.932675    65A      0.954065  
      66A      0.979681    67A      0.997482    68A      1.057893  
      69A      1.091581    70A      1.104944    71A      1.119607  
      72A      1.127033    73A      1.144837    74A      1.149498  
      75A      1.166700    76A      1.188650    77A      1.196479  
      78A      1.211768    79A      1.229381    80A      1.234785  
      81A      1.252215    82A      1.273120    83A      1.298329  
      84A      1.315749    85A      1.378653    86A      1.430025  
      87A      1.438366    88A      1.476232    89A      1.507752  
      90A      1.552655    91A      1.589968    92A      1.637248  
      93A      1.729686    94A      1.741562    95A      1.846634  
      96A      1.879699    97A      1.903131    98A      1.916943  
      99A      1.946937   100A      2.000561   101A      2.005028  
     102A      2.105677   103A      2.110854   104A      2.114492  
     105A      2.144509   106A      2.186090   107A      2.201902  
     108A      2.221086   109A      2.267005   110A      2.303958  
     111A      2.328791   112A      2.352471   113A      2.377016  
     114A      2.401460   115A      2.445214   116A      2.469991  
     117A      2.514708   118A      2.600786   119A      2.623199  
     120A      2.668087   121A      2.675241   122A      2.695560  
     123A      2.738656   124A      2.765731   125A      2.792844  
     126A      2.828060   127A      2.869534   128A      2.945154  
     129A      3.028479   130A      3.054655   131A      3.096426  
     132A      3.137041   133A      3.257545   134A      3.302882  
     135A      3.386830   136A      3.515199   137A      4.512498  
     138A      4.605205   139A      4.658243   140A      4.726980  
     141A      4.820245   142A      4.892638   143A      4.935071  
     144A      5.053410  

    Final Occupation by Irrep:
              A 
    DOCC [    32 ]

  Energy converged.

  @DF-RHF Final Energy:  -383.79067301650213

   => Energetics <=

    Nuclear Repulsion Energy =            431.7410546025222970
    One-Electron Energy =               -1378.7446443332009949
    Two-Electron Energy =                 563.2129167141757762
    DFT Exchange-Correlation Energy =       0.0000000000000000
    Empirical Dispersion Energy =           0.0000000000000000
    PCM Polarization Energy =               0.0000000000000000
    EFP Energy =                            0.0000000000000000
    Total Energy =                       -383.7906730165028648

    Alert: EFP and PCM quantities not currently incorporated into SCF psivars.

Properties will be evaluated at   0.000000,   0.000000,   0.000000 Bohr
  ==> Properties <==


Properties computed using the SCF density matrix

  Nuclear Dipole Moment: (a.u.)
     X:     3.8226      Y:    -7.2067      Z:     3.8299

  Electronic Dipole Moment: (a.u.)
     X:    -3.9160      Y:     5.7280      Z:    -3.8849

  Dipole Moment: (a.u.)
     X:    -0.0935      Y:    -1.4787      Z:    -0.0551     Total:     1.4826

  Dipole Moment: (Debye)
     X:    -0.2376      Y:    -3.7584      Z:    -0.1400     Total:     3.7685


  Saving occupied orbitals to File 180.

*** tstop() called on cx1-1-1-1.cx1.hpc.ic.ac.uk at Tue Jul  5 17:12:23 2016
Module time:
	user time   =      16.09 seconds =       0.27 minutes
	system time =       0.15 seconds =       0.00 minutes
	total time  =         16 seconds =       0.27 minutes
Total time:
	user time   =      16.09 seconds =       0.27 minutes
	system time =       0.15 seconds =       0.00 minutes
	total time  =         16 seconds =       0.27 minutes


Properties will be evaluated at   0.000000,   0.000000,   0.000000 Bohr

Properties computed using the  density matrix

  Nuclear Dipole Moment: (a.u.)
     X:     3.8226      Y:    -7.2067      Z:     3.8299

  Electronic Dipole Moment: (a.u.)
     X:    -3.9160      Y:     5.7280      Z:    -3.8849

  Dipole Moment: (a.u.)
     X:    -0.0935      Y:    -1.4787      Z:    -0.0551     Total:     1.4826

  Dipole Moment: (Debye)
     X:    -0.2376      Y:    -3.7584      Z:    -0.1400     Total:     3.7685

  Quadrupole Moment: (Debye Ang)
    XX:   -48.9117     YY:   -54.3975     ZZ:   -50.1686
    XY:     1.8206     XZ:    -2.4645     YZ:     0.8483

  Traceless Quadrupole Moment: (Debye Ang)
    XX:     2.2476     YY:    -3.2382     ZZ:     0.9907
    XY:     1.8206     XZ:    -2.4645     YZ:     0.8483

  Mulliken Charges: (a.u.)
   Center  Symbol    Alpha    Beta     Spin     Total
       1     O     4.26002  4.26002  0.00000 -0.52003
       2     C     2.62781  2.62781  0.00000  0.74437
       3     C     3.29713  3.29713  0.00000 -0.59427
       4     O     4.30445  4.30445  0.00000 -0.60889
       5     H     0.37839  0.37839  0.00000  0.24321
       6     H     0.38284  0.38284  0.00000  0.23432
       7     H     0.39697  0.39697  0.00000  0.20606
       8     C     3.02550  3.02550  0.00000 -0.05099
       9     C     3.15607  3.15607  0.00000 -0.31214
      10     H     0.39799  0.39799  0.00000  0.20401
      11     H     0.41898  0.41898  0.00000  0.16204
      12     C     3.18879  3.18879  0.00000 -0.37759
      13     H     0.40945  0.40945  0.00000  0.18110
      14     H     0.42088  0.42088  0.00000  0.15824
      15     C     3.21837  3.21837  0.00000 -0.43674
      16     H     0.41558  0.41558  0.00000  0.16885
      17     H     0.37906  0.37906  0.00000  0.24187
      18     H     0.41289  0.41289  0.00000  0.17423
      19     H     0.42892  0.42892  0.00000  0.14216
      20     H     0.47990  0.47990  0.00000  0.04019

   Total alpha = 32.00000, Total beta = 32.00000, Total charge =  0.00000


*** PSI4 exiting successfully. Buy a developer a beer!
