    -----------------------------------------------------------------------
          Psi4: An Open-Source Ab Initio Electronic Structure Package
                              Psi4 (no tag) Driver

                          Git: Rev {detached?}  

    J. M. Turney, A. C. Simmonett, R. M. Parrish, E. G. Hohenstein,
    F. A. Evangelista, J. T. Fermann, B. J. Mintz, L. A. Burns, J. J. Wilke,
    M. L. Abrams, N. J. Russ, M. L. Leininger, C. L. Janssen, E. T. Seidl,
    W. D. Allen, H. F. Schaefer, R. A. King, E. F. Valeev, C. D. Sherrill,
    and T. D. Crawford, WIREs Comput. Mol. Sci. 2, 556-565 (2012)
    (doi: 10.1002/wcms.93)

                         Additional Contributions by
    A. E. DePrince, M. Saitow, U. Bozkaya, A. Yu. Sokolov
    -----------------------------------------------------------------------


    Psi4 started on: Tue Jul  5 16:41:05 2016

    Process ID:  23118
    PSI4DATADIR: /export131/home/mjharvey/miniconda3/share
    Memory level set to 256.000 MB

  ==> Input File <==

--------------------------------------------------------------------------
set {
	reference rhf
	basis 6-31G*
}


set_num_threads( 1 )
memory 2 gb

molecule MOL {
0 1

H	 -2.698709	 -0.000305	 0.034435
C	 -1.693833	 0.000034	 0.434417
O	 -0.828952	 -0.000968	 -0.659236
H	 -1.574200	 0.882896	 1.055746
H	 -1.574147	 -0.881698	 1.057355
C	 -1.380943	 -0.002123	 -1.955310
C	 -1.966440	 -1.359131	 -2.340846
C	 -2.371929	 1.140044	 -2.170625
H	 -0.521398	 0.180517	 -2.589231
H	 -1.255213	 -2.149916	 -2.127855
H	 -2.189555	 -1.378761	 -3.402952
H	 -2.888344	 -1.574775	 -1.810040
H	 -1.941673	 2.078908	 -1.839155
H	 -2.611943	 1.229157	 -3.225574
H	 -3.303466	 0.982102	 -1.636645

	symmetry c1
}
set optking {
	frozen_dihedral = ("
		9 6 3 2
	")
}

ee = energy('scf')
oeprop('DIPOLE', 'QUADRUPOLE', 'MULLIKEN_CHARGES')
f=open( 'psi4out.xyz', 'w' )
f.write( "15  " )
f.write( str(ee) + "\n" )
f.write( MOL.save_string_xyz() )
f.close()
--------------------------------------------------------------------------

  Memory set to   2.000 GiB by Python script.

*** tstart() called on cx1-3-4-2.cx1.hpc.ic.ac.uk
*** at Tue Jul  5 16:41:06 2016


         ---------------------------------------------------------
                                   SCF
            by Justin Turney, Rob Parrish, and Andy Simmonett
                              RHF Reference
                        1 Threads,   2000 MiB Core
         ---------------------------------------------------------

  ==> Geometry <==

    Molecular point group: c1
    Full point group: C1

    Geometry (in Angstrom), charge = 0, multiplicity = 1:

       Center              X                  Y                   Z               Mass       
    ------------   -----------------  -----------------  -----------------  -----------------
           H         -1.039048897144     0.044332143858     1.351106762574     1.007825032070
           C         -0.034172897144     0.044671143858     1.751088762574    12.000000000000
           O          0.830708102856     0.043669143858     0.657435762574    15.994914619560
           H          0.085460102856     0.927533143858     2.372417762574     1.007825032070
           H          0.085513102856    -0.837060856142     2.374026762574     1.007825032070
           C          0.278717102856     0.042514143858    -0.638638237426    12.000000000000
           C         -0.306779897144    -1.314493856142    -1.024174237426    12.000000000000
           C         -0.712268897144     1.184681143858    -0.853953237426    12.000000000000
           H          1.138262102856     0.225154143858    -1.272559237426     1.007825032070
           H          0.404447102856    -2.105278856142    -0.811183237426     1.007825032070
           H         -0.529894897144    -1.334123856142    -2.086280237426     1.007825032070
           H         -1.228683897144    -1.530137856142    -0.493368237426     1.007825032070
           H         -0.282012897144     2.123545143858    -0.522483237426     1.007825032070
           H         -0.952282897144     1.273794143858    -1.908902237426     1.007825032070
           H         -1.643805897144     1.026739143858    -0.319973237426     1.007825032070

  Running in c1 symmetry.

  Rotational constants: A =      0.21837  B =      0.14020  C =      0.10830 [cm^-1]
  Rotational constants: A =   6546.66737  B =   4203.02769  C =   3246.66040 [MHz]
  Nuclear repulsion =  198.985001169172563

  Charge       = 0
  Multiplicity = 1
  Electrons    = 42
  Nalpha       = 21
  Nbeta        = 21

  ==> Algorithm <==

  SCF Algorithm Type is DF.
  DIIS enabled.
  MOM disabled.
  Fractional occupation disabled.
  Guess Type is CORE.
  Energy threshold   = 1.00e-06
  Density threshold  = 1.00e-06
  Integral threshold = 0.00e+00

  ==> Primary Basis <==

  Basis Set: 6-31G*
    Number of shells: 50
    Number of basis function: 95
    Number of Cartesian functions: 95
    Spherical Harmonics?: false
    Max angular momentum: 2

  ==> Pre-Iterations <==

   -------------------------------------------------------
    Irrep   Nso     Nmo     Nalpha   Nbeta   Ndocc  Nsocc
   -------------------------------------------------------
     A         95      95       0       0       0       0
   -------------------------------------------------------
    Total      95      95      21      21      21       0
   -------------------------------------------------------

 OEINTS: Overlap, kinetic, potential, dipole, and quadrupole integrals
         stored in file 35.

  ==> Integral Setup <==

  ==> DFJK: Density-Fitted J/K Matrices <==

    J tasked:                  Yes
    K tasked:                  Yes
    wK tasked:                  No
    OpenMP threads:              1
    Integrals threads:           1
    Memory (MB):              1430
    Algorithm:                Core
    Integral Cache:           NONE
    Schwarz Cutoff:          1E-12
    Fitting Condition:       1E-12

   => Auxiliary Basis Set <=

  Basis Set: 
    Number of shells: 210
    Number of basis function: 655
    Number of Cartesian functions: 655
    Spherical Harmonics?: false
    Max angular momentum: 3

  Minimum eigenvalue in the overlap matrix is 4.0961678810E-03.
  Using Symmetric Orthogonalization.
  SCF Guess: Core (One-Electron) Hamiltonian.

  ==> Iterations <==

                           Total Energy        Delta E     RMS |[F,P]|

   @DF-RHF iter   1:  -180.53528177248302   -1.80535e+02   8.49969e-02 
   @DF-RHF iter   2:  -184.23663769277994   -3.70136e+00   5.39477e-02 DIIS
   @DF-RHF iter   3:  -206.46833672220600   -2.22317e+01   5.92666e-02 DIIS
   @DF-RHF iter   4:  -228.56840484829269   -2.21001e+01   2.77242e-02 DIIS
   @DF-RHF iter   5:  -231.26501687284127   -2.69661e+00   1.30856e-02 DIIS
   @DF-RHF iter   6:  -232.01654339166834   -7.51527e-01   4.55656e-03 DIIS
   @DF-RHF iter   7:  -232.12604393115276   -1.09501e-01   8.63557e-04 DIIS
   @DF-RHF iter   8:  -232.13144768423200   -5.40375e-03   2.60758e-04 DIIS
   @DF-RHF iter   9:  -232.13199413971842   -5.46455e-04   9.79079e-05 DIIS
   @DF-RHF iter  10:  -232.13205975426587   -6.56145e-05   2.46951e-05 DIIS
   @DF-RHF iter  11:  -232.13206463920807   -4.88494e-06   1.08461e-05 DIIS
   @DF-RHF iter  12:  -232.13206528792364   -6.48716e-07   1.80222e-06 DIIS
   @DF-RHF iter  13:  -232.13206531903040   -3.11068e-08   5.21902e-07 DIIS

  ==> Post-Iterations <==

    Orbital Energies (a.u.)
    -----------------------

    Doubly Occupied:                                                      

       1A    -20.545075     2A    -11.275704     3A    -11.260927  
       4A    -11.212256     5A    -11.209996     6A     -1.369431  
       7A     -1.050585     8A     -0.941757     9A     -0.930015  
      10A     -0.781706    11A     -0.678881    12A     -0.638077  
      13A     -0.632569    14A     -0.574407    15A     -0.563069  
      16A     -0.549683    17A     -0.537927    18A     -0.502873  
      19A     -0.497638    20A     -0.439425    21A     -0.403326  

    Virtual:                                                              

      22A      0.224410    23A      0.270134    24A      0.288925  
      25A      0.298437    26A      0.299236    27A      0.320666  
      28A      0.328087    29A      0.337047    30A      0.346155  
      31A      0.357438    32A      0.382308    33A      0.411444  
      34A      0.456077    35A      0.473758    36A      0.694683  
      37A      0.704330    38A      0.733336    39A      0.744839  
      40A      0.786375    41A      0.836085    42A      0.895498  
      43A      0.920765    44A      0.955268    45A      0.978371  
      46A      0.982264    47A      1.059341    48A      1.118196  
      49A      1.143888    50A      1.162829    51A      1.169178  
      52A      1.180423    53A      1.190199    54A      1.196560  
      55A      1.207090    56A      1.237077    57A      1.256976  
      58A      1.265135    59A      1.305196    60A      1.388051  
      61A      1.403704    62A      1.622443    63A      1.627565  
      64A      1.667702    65A      1.694544    66A      1.858180  
      67A      1.895597    68A      1.959680    69A      2.044798  
      70A      2.063770    71A      2.123668    72A      2.210844  
      73A      2.226350    74A      2.334366    75A      2.410697  
      76A      2.443087    77A      2.478570    78A      2.527388  
      79A      2.567101    80A      2.589722    81A      2.610269  
      82A      2.641325    83A      2.669453    84A      2.775449  
      85A      2.834207    86A      2.877093    87A      2.951990  
      88A      3.110990    89A      3.217347    90A      3.313911  
      91A      4.392578    92A      4.619110    93A      4.681147  
      94A      4.721597    95A      4.970241  

    Final Occupation by Irrep:
              A 
    DOCC [    21 ]

  Energy converged.

  @DF-RHF Final Energy:  -232.13206531903040

   => Energetics <=

    Nuclear Repulsion Energy =            198.9850011691725626
    One-Electron Energy =                -709.0432678669750430
    Two-Electron Energy =                 277.9262013787720207
    DFT Exchange-Correlation Energy =       0.0000000000000000
    Empirical Dispersion Energy =           0.0000000000000000
    PCM Polarization Energy =               0.0000000000000000
    EFP Energy =                            0.0000000000000000
    Total Energy =                       -232.1320653190304597

    Alert: EFP and PCM quantities not currently incorporated into SCF psivars.

Properties will be evaluated at   0.000000,   0.000000,   0.000000 Bohr
  ==> Properties <==


Properties computed using the SCF density matrix

  Nuclear Dipole Moment: (a.u.)
     X:    -3.7103      Y:    -0.1737      Z:    -1.2317

  Electronic Dipole Moment: (a.u.)
     X:     3.1309      Y:     0.1870      Z:     1.1034

  Dipole Moment: (a.u.)
     X:    -0.5794      Y:     0.0133      Z:    -0.1283     Total:     0.5936

  Dipole Moment: (Debye)
     X:    -1.4727      Y:     0.0338      Z:    -0.3261     Total:     1.5088


  Saving occupied orbitals to File 180.

*** tstop() called on cx1-3-4-2.cx1.hpc.ic.ac.uk at Tue Jul  5 16:41:12 2016
Module time:
	user time   =       5.49 seconds =       0.09 minutes
	system time =       0.05 seconds =       0.00 minutes
	total time  =          6 seconds =       0.10 minutes
Total time:
	user time   =       5.49 seconds =       0.09 minutes
	system time =       0.05 seconds =       0.00 minutes
	total time  =          6 seconds =       0.10 minutes


Properties will be evaluated at   0.000000,   0.000000,   0.000000 Bohr

Properties computed using the  density matrix

  Nuclear Dipole Moment: (a.u.)
     X:    -3.7103      Y:    -0.1737      Z:    -1.2317

  Electronic Dipole Moment: (a.u.)
     X:     3.1309      Y:     0.1870      Z:     1.1034

  Dipole Moment: (a.u.)
     X:    -0.5794      Y:     0.0133      Z:    -0.1283     Total:     0.5936

  Dipole Moment: (Debye)
     X:    -1.4727      Y:     0.0338      Z:    -0.3261     Total:     1.5088

  Quadrupole Moment: (Debye Ang)
    XX:   -35.2706     YY:   -33.3464     ZZ:   -30.6119
    XY:    -0.0624     XZ:    -1.7352     YZ:    -0.0668

  Traceless Quadrupole Moment: (Debye Ang)
    XX:    -2.1943     YY:    -0.2701     ZZ:     2.4644
    XY:    -0.0624     XZ:    -1.7352     YZ:    -0.0668

  Mulliken Charges: (a.u.)
   Center  Symbol    Alpha    Beta     Spin     Total
       1     H     0.43303  0.43303  0.00000  0.13395
       2     C     3.07443  3.07443  0.00000 -0.14886
       3     O     4.31574  4.31574  0.00000 -0.63148
       4     H     0.42159  0.42159  0.00000  0.15683
       5     H     0.42126  0.42126  0.00000  0.15747
       6     C     2.91110  2.91110  0.00000  0.17780
       7     C     3.24888  3.24888  0.00000 -0.49775
       8     C     3.25592  3.25592  0.00000 -0.51184
       9     H     0.41479  0.41479  0.00000  0.17043
      10     H     0.41091  0.41091  0.00000  0.17818
      11     H     0.42087  0.42087  0.00000  0.15826
      12     H     0.42251  0.42251  0.00000  0.15499
      13     H     0.41114  0.41114  0.00000  0.17772
      14     H     0.41782  0.41782  0.00000  0.16436
      15     H     0.42003  0.42003  0.00000  0.15995

   Total alpha = 21.00000, Total beta = 21.00000, Total charge = -0.00000


*** PSI4 exiting successfully. Buy a developer a beer!
