    -----------------------------------------------------------------------
          Psi4: An Open-Source Ab Initio Electronic Structure Package
                              Psi4 (no tag) Driver

                          Git: Rev {detached?}  

    J. M. Turney, A. C. Simmonett, R. M. Parrish, E. G. Hohenstein,
    F. A. Evangelista, J. T. Fermann, B. J. Mintz, L. A. Burns, J. J. Wilke,
    M. L. Abrams, N. J. Russ, M. L. Leininger, C. L. Janssen, E. T. Seidl,
    W. D. Allen, H. F. Schaefer, R. A. King, E. F. Valeev, C. D. Sherrill,
    and T. D. Crawford, WIREs Comput. Mol. Sci. 2, 556-565 (2012)
    (doi: 10.1002/wcms.93)

                         Additional Contributions by
    A. E. DePrince, M. Saitow, U. Bozkaya, A. Yu. Sokolov
    -----------------------------------------------------------------------


    Psi4 started on: Tue Jul  5 16:30:59 2016

    Process ID:  16132
    PSI4DATADIR: /export131/home/mjharvey/miniconda3/share
    Memory level set to 256.000 MB

  ==> Input File <==

--------------------------------------------------------------------------
set {
	reference rhf
	basis 6-31G*
}


set_num_threads( 1 )
memory 2 gb

molecule MOL {
0 1

H	 -3.571158	 0.540474	 -0.139285
O	 -3.106200	 -0.271124	 0.011510
C	 -1.775819	 -0.076055	 0.001477
C	 -1.212014	 1.178967	 -0.208392
C	 -0.966287	 -1.185521	 0.210777
H	 -1.846601	 2.033688	 -0.369833
C	 0.159872	 1.319497	 -0.208105
H	 -1.424884	 -2.142860	 0.370347
C	 0.404080	 -1.028923	 0.208218
H	 0.608415	 2.281841	 -0.368736
C	 0.984182	 0.218375	 0.000000
H	 1.031869	 -1.888371	 0.370364
C	 2.452467	 0.370529	 0.000000
O	 3.228994	 -0.533774	 0.000000
H	 2.809473	 1.405765	 0.000000

	symmetry c1
}
set optking {
	frozen_dihedral = ("
		5 3 2 1
	")
}

ee = energy('scf')
oeprop('DIPOLE', 'QUADRUPOLE', 'MULLIKEN_CHARGES')
f=open( 'psi4out.xyz', 'w' )
f.write( "15  " )
f.write( str(ee) + "\n" )
f.write( MOL.save_string_xyz() )
f.close()
--------------------------------------------------------------------------

  Memory set to   2.000 GiB by Python script.

*** tstart() called on cx1-1-3-3.cx1.hpc.ic.ac.uk
*** at Tue Jul  5 16:31:00 2016


         ---------------------------------------------------------
                                   SCF
            by Justin Turney, Rob Parrish, and Andy Simmonett
                              RHF Reference
                        1 Threads,   2000 MiB Core
         ---------------------------------------------------------

  ==> Geometry <==

    Molecular point group: c1
    Full point group: C1

    Geometry (in Angstrom), charge = 0, multiplicity = 1:

       Center              X                  Y                   Z               Mass       
    ------------   -----------------  -----------------  -----------------  -----------------
           H         -3.572061343538     0.549191501141    -0.140051861592     1.007825032070
           O         -3.107103343538    -0.262406498859     0.010743138408    15.994914619560
           C         -1.776722343538    -0.067337498859     0.000710138408    12.000000000000
           C         -1.212917343538     1.187684501141    -0.209158861592    12.000000000000
           C         -0.967190343538    -1.176803498859     0.210010138408    12.000000000000
           H         -1.847504343538     2.042405501141    -0.370599861592     1.007825032070
           C          0.158968656462     1.328214501141    -0.208871861592    12.000000000000
           H         -1.425787343538    -2.134142498859     0.369580138408     1.007825032070
           C          0.403176656462    -1.020205498859     0.207451138408    12.000000000000
           H          0.607511656462     2.290558501141    -0.369502861592     1.007825032070
           C          0.983278656462     0.227092501141    -0.000766861592    12.000000000000
           H          1.030965656462    -1.879653498859     0.369597138408     1.007825032070
           C          2.451563656462     0.379246501141    -0.000766861592    12.000000000000
           O          3.228090656462    -0.525056498859    -0.000766861592    15.994914619560
           H          2.808569656462     1.414482501141    -0.000766861592     1.007825032070

  Running in c1 symmetry.

  Rotational constants: A =      0.17255  B =      0.03359  C =      0.02814 [cm^-1]
  Rotational constants: A =   5172.78447  B =   1006.94208  C =    843.64718 [MHz]
  Nuclear repulsion =  401.348804818890983

  Charge       = 0
  Multiplicity = 1
  Electrons    = 64
  Nalpha       = 32
  Nbeta        = 32

  ==> Algorithm <==

  SCF Algorithm Type is DF.
  DIIS enabled.
  MOM disabled.
  Fractional occupation disabled.
  Guess Type is CORE.
  Energy threshold   = 1.00e-06
  Density threshold  = 1.00e-06
  Integral threshold = 0.00e+00

  ==> Primary Basis <==

  Basis Set: 6-31G*
    Number of shells: 66
    Number of basis function: 147
    Number of Cartesian functions: 147
    Spherical Harmonics?: false
    Max angular momentum: 2

  ==> Pre-Iterations <==

   -------------------------------------------------------
    Irrep   Nso     Nmo     Nalpha   Nbeta   Ndocc  Nsocc
   -------------------------------------------------------
     A        147     147       0       0       0       0
   -------------------------------------------------------
    Total     147     147      32      32      32       0
   -------------------------------------------------------

 OEINTS: Overlap, kinetic, potential, dipole, and quadrupole integrals
         stored in file 35.

  ==> Integral Setup <==

  ==> DFJK: Density-Fitted J/K Matrices <==

    J tasked:                  Yes
    K tasked:                  Yes
    wK tasked:                  No
    OpenMP threads:              1
    Integrals threads:           1
    Memory (MB):              1430
    Algorithm:                Core
    Integral Cache:           NONE
    Schwarz Cutoff:          1E-12
    Fitting Condition:       1E-12

   => Auxiliary Basis Set <=

  Basis Set: 
    Number of shells: 270
    Number of basis function: 879
    Number of Cartesian functions: 879
    Spherical Harmonics?: false
    Max angular momentum: 3

  Minimum eigenvalue in the overlap matrix is 4.0569379786E-04.
  Using Symmetric Orthogonalization.
  SCF Guess: Core (One-Electron) Hamiltonian.

  ==> Iterations <==

                           Total Energy        Delta E     RMS |[F,P]|

   @DF-RHF iter   1:  -343.06132398796052   -3.43061e+02   6.06982e-02 
   @DF-RHF iter   2:  -198.83653712542997    1.44225e+02   8.53625e-02 DIIS
   @DF-RHF iter   3:  -329.93025917150425   -1.31094e+02   4.73300e-02 DIIS
   @DF-RHF iter   4:  -294.81754563514522    3.51127e+01   6.32995e-02 DIIS
   @DF-RHF iter   5:  -409.49102479094682   -1.14673e+02   2.30752e-02 DIIS
   @DF-RHF iter   6:  -417.47719778769175   -7.98617e+00   9.28884e-03 DIIS
   @DF-RHF iter   7:  -418.10920318647760   -6.32005e-01   4.14575e-03 DIIS
   @DF-RHF iter   8:  -418.25708583445470   -1.47883e-01   1.50321e-03 DIIS
   @DF-RHF iter   9:  -418.28080601438199   -2.37202e-02   6.96307e-04 DIIS
   @DF-RHF iter  10:  -418.28765107802673   -6.84506e-03   1.90124e-04 DIIS
   @DF-RHF iter  11:  -418.28886445167478   -1.21337e-03   7.62014e-05 DIIS
   @DF-RHF iter  12:  -418.28910699010277   -2.42538e-04   4.33566e-05 DIIS
   @DF-RHF iter  13:  -418.28919575362960   -8.87635e-05   1.85018e-05 DIIS
   @DF-RHF iter  14:  -418.28921703776012   -2.12841e-05   5.07073e-06 DIIS
   @DF-RHF iter  15:  -418.28921805142255   -1.01366e-06   2.00637e-06 DIIS
   @DF-RHF iter  16:  -418.28921815218013   -1.00758e-07   6.69578e-07 DIIS

  ==> Post-Iterations <==

    Orbital Energies (a.u.)
    -----------------------

    Doubly Occupied:                                                      

       1A    -20.611138     2A    -20.555998     3A    -11.328007  
       4A    -11.323798     5A    -11.263202     6A    -11.254003  
       7A    -11.245833     8A    -11.238842     9A    -11.237231  
      10A     -1.432223    11A     -1.397002    12A     -1.170631  
      13A     -1.043172    14A     -1.036797    15A     -0.893845  
      16A     -0.858552    17A     -0.802873    18A     -0.756373  
      19A     -0.695658    20A     -0.686630    21A     -0.639468  
      22A     -0.623987    23A     -0.609643    24A     -0.608245  
      25A     -0.582408    26A     -0.557335    27A     -0.547979  
      28A     -0.506615    29A     -0.484010    30A     -0.418493  
      31A     -0.357311    32A     -0.326694  

    Virtual:                                                              

      33A      0.096912    34A      0.128467    35A      0.208851  
      36A      0.229075    37A      0.240389    38A      0.264231  
      39A      0.304580    40A      0.323308    41A      0.332920  
      42A      0.377041    43A      0.412078    44A      0.429033  
      45A      0.455631    46A      0.490852    47A      0.532066  
      48A      0.554474    49A      0.575330    50A      0.700700  
      51A      0.717091    52A      0.721730    53A      0.750432  
      54A      0.753082    55A      0.772625    56A      0.776186  
      57A      0.806426    58A      0.809457    59A      0.824785  
      60A      0.855840    61A      0.866817    62A      0.889841  
      63A      0.891990    64A      0.935070    65A      0.983246  
      66A      1.007286    67A      1.017331    68A      1.057401  
      69A      1.083076    70A      1.098602    71A      1.106812  
      72A      1.108912    73A      1.136274    74A      1.164449  
      75A      1.182164    76A      1.201312    77A      1.221783  
      78A      1.225776    79A      1.244334    80A      1.281773  
      81A      1.306487    82A      1.334884    83A      1.358391  
      84A      1.411350    85A      1.453621    86A      1.467601  
      87A      1.482473    88A      1.525564    89A      1.559294  
      90A      1.610317    91A      1.641267    92A      1.656793  
      93A      1.713894    94A      1.717357    95A      1.731276  
      96A      1.770812    97A      1.831319    98A      1.852257  
      99A      1.939952   100A      2.008663   101A      2.029647  
     102A      2.045147   103A      2.071018   104A      2.077971  
     105A      2.148847   106A      2.168165   107A      2.225268  
     108A      2.246627   109A      2.262908   110A      2.303841  
     111A      2.354004   112A      2.367555   113A      2.398422  
     114A      2.411475   115A      2.447307   116A      2.454895  
     117A      2.577189   118A      2.604108   119A      2.631672  
     120A      2.639535   121A      2.679977   122A      2.739390  
     123A      2.749006   124A      2.834494   125A      2.879351  
     126A      2.943614   127A      2.953885   128A      3.011486  
     129A      3.029842   130A      3.036028   131A      3.102631  
     132A      3.180309   133A      3.252963   134A      3.300089  
     135A      3.358499   136A      3.406267   137A      3.557532  
     138A      3.834809   139A      4.327877   140A      4.356135  
     141A      4.514262   142A      4.534013   143A      4.584422  
     144A      4.680468   145A      4.742251   146A      4.895016  
     147A      5.178406  

    Final Occupation by Irrep:
              A 
    DOCC [    32 ]

  Energy converged.

  @DF-RHF Final Energy:  -418.28921815218013

   => Energetics <=

    Nuclear Repulsion Energy =            401.3488048188909829
    One-Electron Energy =               -1365.0880728729659950
    Two-Electron Energy =                 545.4500499018936353
    DFT Exchange-Correlation Energy =       0.0000000000000000
    Empirical Dispersion Energy =           0.0000000000000000
    PCM Polarization Energy =               0.0000000000000000
    EFP Energy =                            0.0000000000000000
    Total Energy =                       -418.2892181521813200

    Alert: EFP and PCM quantities not currently incorporated into SCF psivars.

Properties will be evaluated at   0.000000,   0.000000,   0.000000 Bohr
  ==> Properties <==


Properties computed using the SCF density matrix

  Nuclear Dipole Moment: (a.u.)
     X:    -2.2478      Y:     2.1363      Z:    -0.1328

  Electronic Dipole Moment: (a.u.)
     X:     0.9550      Y:    -0.9111      Z:     0.0481

  Dipole Moment: (a.u.)
     X:    -1.2927      Y:     1.2252      Z:    -0.0847     Total:     1.7831

  Dipole Moment: (Debye)
     X:    -3.2858      Y:     3.1141      Z:    -0.2153     Total:     4.5322


  Saving occupied orbitals to File 180.

*** tstop() called on cx1-1-3-3.cx1.hpc.ic.ac.uk at Tue Jul  5 16:31:17 2016
Module time:
	user time   =      16.30 seconds =       0.27 minutes
	system time =       0.08 seconds =       0.00 minutes
	total time  =         17 seconds =       0.28 minutes
Total time:
	user time   =      16.30 seconds =       0.27 minutes
	system time =       0.08 seconds =       0.00 minutes
	total time  =         17 seconds =       0.28 minutes


Properties will be evaluated at   0.000000,   0.000000,   0.000000 Bohr

Properties computed using the  density matrix

  Nuclear Dipole Moment: (a.u.)
     X:    -2.2478      Y:     2.1363      Z:    -0.1328

  Electronic Dipole Moment: (a.u.)
     X:     0.9550      Y:    -0.9111      Z:     0.0481

  Dipole Moment: (a.u.)
     X:    -1.2927      Y:     1.2252      Z:    -0.0847     Total:     1.7831

  Dipole Moment: (Debye)
     X:    -3.2858      Y:     3.1141      Z:    -0.2153     Total:     4.5322

  Quadrupole Moment: (Debye Ang)
    XX:   -58.2212     YY:   -45.2339     ZZ:   -53.8215
    XY:    -0.1176     XZ:     1.2383     YZ:    -1.7343

  Traceless Quadrupole Moment: (Debye Ang)
    XX:    -5.7957     YY:     7.1917     ZZ:    -1.3960
    XY:    -0.1176     XZ:     1.2383     YZ:    -1.7343

  Mulliken Charges: (a.u.)
   Center  Symbol    Alpha    Beta     Spin     Total
       1     H     0.26882  0.26882  0.00000  0.46236
       2     O     4.37264  4.37264  0.00000 -0.74528
       3     C     2.78486  2.78486  0.00000  0.43028
       4     C     3.14882  3.14882  0.00000 -0.29764
       5     C     3.12734  3.12734  0.00000 -0.25467
       6     H     0.39914  0.39914  0.00000  0.20172
       7     C     3.09032  3.09032  0.00000 -0.18063
       8     H     0.38537  0.38537  0.00000  0.22926
       9     C     3.07963  3.07963  0.00000 -0.15925
      10     H     0.38967  0.38967  0.00000  0.22066
      11     C     3.06753  3.06753  0.00000 -0.13507
      12     H     0.37547  0.37547  0.00000  0.24906
      13     C     2.83167  2.83167  0.00000  0.33666
      14     O     4.25282  4.25282  0.00000 -0.50565
      15     H     0.42590  0.42590  0.00000  0.14819

   Total alpha = 32.00000, Total beta = 32.00000, Total charge = -0.00000


*** PSI4 exiting successfully. Buy a developer a beer!
