    -----------------------------------------------------------------------
          Psi4: An Open-Source Ab Initio Electronic Structure Package
                              Psi4 (no tag) Driver

                          Git: Rev {detached?}  

    J. M. Turney, A. C. Simmonett, R. M. Parrish, E. G. Hohenstein,
    F. A. Evangelista, J. T. Fermann, B. J. Mintz, L. A. Burns, J. J. Wilke,
    M. L. Abrams, N. J. Russ, M. L. Leininger, C. L. Janssen, E. T. Seidl,
    W. D. Allen, H. F. Schaefer, R. A. King, E. F. Valeev, C. D. Sherrill,
    and T. D. Crawford, WIREs Comput. Mol. Sci. 2, 556-565 (2012)
    (doi: 10.1002/wcms.93)

                         Additional Contributions by
    A. E. DePrince, M. Saitow, U. Bozkaya, A. Yu. Sokolov
    -----------------------------------------------------------------------


    Psi4 started on: Tue Jul  5 16:24:59 2016

    Process ID:  18898
    PSI4DATADIR: /export131/home/mjharvey/miniconda3/share
    Memory level set to 256.000 MB

  ==> Input File <==

--------------------------------------------------------------------------
set {
	reference rhf
	basis 6-31G*
}


set_num_threads( 1 )
memory 2 gb

molecule MOL {
0 1

H	 0.047796	 1.258445	 -1.110688
O	 0.055946	 1.300438	 -0.164479
C	 0.004957	 -0.004114	 0.366649
C	 1.201664	 -0.828089	 -0.095740
C	 -1.317755	 -0.601827	 -0.081511
H	 0.013527	 0.048298	 1.454924
H	 1.216388	 -0.895289	 -1.178704
H	 2.135132	 -0.372895	 0.226467
H	 1.166770	 -1.832878	 0.313827
H	 -1.355732	 -0.658248	 -1.164429
H	 -2.141614	 0.017037	 0.254547
H	 -1.447303	 -1.600817	 0.322594

	symmetry c1
}
ee = energy('scf')
oeprop('DIPOLE', 'QUADRUPOLE', 'MULLIKEN_CHARGES')
f=open( 'psi4out.xyz', 'w' )
f.write( "12  " )
f.write( str(ee) + "\n" )
f.write( MOL.save_string_xyz() )
f.close()
--------------------------------------------------------------------------

  Memory set to   2.000 GiB by Python script.

*** tstart() called on cx1-3-15-4.cx1.hpc.ic.ac.uk
*** at Tue Jul  5 16:24:59 2016


         ---------------------------------------------------------
                                   SCF
            by Justin Turney, Rob Parrish, and Andy Simmonett
                              RHF Reference
                        1 Threads,   2000 MiB Core
         ---------------------------------------------------------

  ==> Geometry <==

    Molecular point group: c1
    Full point group: C1

    Geometry (in Angstrom), charge = 0, multiplicity = 1:

       Center              X                  Y                   Z               Mass       
    ------------   -----------------  -----------------  -----------------  -----------------
           H          0.061227273784     1.266369016964    -1.089934376866     1.007825032070
           O          0.069377273784     1.308362016964    -0.143725376866    15.994914619560
           C          0.018388273784     0.003810016964     0.387402623134    12.000000000000
           C          1.215095273784    -0.820164983036    -0.074986376866    12.000000000000
           C         -1.304323726216    -0.593902983036    -0.060757376866    12.000000000000
           H          0.026958273784     0.056222016964     1.475677623134     1.007825032070
           H          1.229819273784    -0.887364983036    -1.157950376866     1.007825032070
           H          2.148563273784    -0.364970983036     0.247220623134     1.007825032070
           H          1.180201273784    -1.824953983036     0.334580623134     1.007825032070
           H         -1.342300726216    -0.650323983036    -1.143675376866     1.007825032070
           H         -2.128182726216     0.024961016964     0.275300623134     1.007825032070
           H         -1.433871726216    -1.592892983036     0.343347623134     1.007825032070

  Running in c1 symmetry.

  Rotational constants: A =      0.29799  B =      0.26576  C =      0.16367 [cm^-1]
  Rotational constants: A =   8933.64992  B =   7967.39707  C =   4906.79986 [MHz]
  Nuclear repulsion =  135.882549516565490

  Charge       = 0
  Multiplicity = 1
  Electrons    = 34
  Nalpha       = 17
  Nbeta        = 17

  ==> Algorithm <==

  SCF Algorithm Type is DF.
  DIIS enabled.
  MOM disabled.
  Fractional occupation disabled.
  Guess Type is CORE.
  Energy threshold   = 1.00e-06
  Density threshold  = 1.00e-06
  Integral threshold = 0.00e+00

  ==> Primary Basis <==

  Basis Set: 6-31G*
    Number of shells: 40
    Number of basis function: 76
    Number of Cartesian functions: 76
    Spherical Harmonics?: false
    Max angular momentum: 2

  ==> Pre-Iterations <==

   -------------------------------------------------------
    Irrep   Nso     Nmo     Nalpha   Nbeta   Ndocc  Nsocc
   -------------------------------------------------------
     A         76      76       0       0       0       0
   -------------------------------------------------------
    Total      76      76      17      17      17       0
   -------------------------------------------------------

 OEINTS: Overlap, kinetic, potential, dipole, and quadrupole integrals
         stored in file 35.

  ==> Integral Setup <==

  ==> DFJK: Density-Fitted J/K Matrices <==

    J tasked:                  Yes
    K tasked:                  Yes
    wK tasked:                  No
    OpenMP threads:              1
    Integrals threads:           1
    Memory (MB):              1430
    Algorithm:                Core
    Integral Cache:           NONE
    Schwarz Cutoff:          1E-12
    Fitting Condition:       1E-12

   => Auxiliary Basis Set <=

  Basis Set: 
    Number of shells: 168
    Number of basis function: 524
    Number of Cartesian functions: 524
    Spherical Harmonics?: false
    Max angular momentum: 3

  Minimum eigenvalue in the overlap matrix is 4.2308575852E-03.
  Using Symmetric Orthogonalization.
  SCF Guess: Core (One-Electron) Hamiltonian.

  ==> Iterations <==

                           Total Energy        Delta E     RMS |[F,P]|

   @DF-RHF iter   1:  -158.68207379320026   -1.58682e+02   8.53792e-02 
   @DF-RHF iter   2:  -156.59939489648914    2.08268e+00   5.74744e-02 DIIS
   @DF-RHF iter   3:  -174.30857551697832   -1.77092e+01   6.33195e-02 DIIS
   @DF-RHF iter   4:  -191.42413842276588   -1.71156e+01   2.41908e-02 DIIS
   @DF-RHF iter   5:  -192.56423825180960   -1.14010e+00   1.31448e-02 DIIS
   @DF-RHF iter   6:  -193.02116205692758   -4.56924e-01   5.30872e-03 DIIS
   @DF-RHF iter   7:  -193.10809233961706   -8.69303e-02   1.11319e-03 DIIS
   @DF-RHF iter   8:  -193.11194734030593   -3.85500e-03   4.19748e-04 DIIS
   @DF-RHF iter   9:  -193.11273795902841   -7.90619e-04   1.04145e-04 DIIS
   @DF-RHF iter  10:  -193.11279129987784   -5.33408e-05   2.40848e-05 DIIS
   @DF-RHF iter  11:  -193.11279400410550   -2.70423e-06   5.01577e-06 DIIS
   @DF-RHF iter  12:  -193.11279412032118   -1.16216e-07   1.37865e-06 DIIS
   @DF-RHF iter  13:  -193.11279413117583   -1.08546e-08   3.70319e-07 DIIS

  ==> Post-Iterations <==

    Orbital Energies (a.u.)
    -----------------------

    Doubly Occupied:                                                      

       1A    -20.549430     2A    -11.276718     3A    -11.213838  
       4A    -11.210316     5A     -1.360888     6A     -1.042024  
       7A     -0.941942     8A     -0.817461     9A     -0.660945  
      10A     -0.648532    11A     -0.600787    12A     -0.574949  
      13A     -0.548212    14A     -0.517073    15A     -0.509048  
      16A     -0.464332    17A     -0.428680  

    Virtual:                                                              

      18A      0.217629    19A      0.263634    20A      0.291881  
      21A      0.298972    22A      0.308429    23A      0.322379  
      24A      0.348533    25A      0.351750    26A      0.399089  
      27A      0.434148    28A      0.442583    29A      0.702949  
      30A      0.726651    31A      0.787604    32A      0.808428  
      33A      0.811097    34A      0.901173    35A      0.942894  
      36A      0.967798    37A      0.989606    38A      1.116951  
      39A      1.142538    40A      1.165845    41A      1.172557  
      42A      1.186865    43A      1.192479    44A      1.211806  
      45A      1.233007    46A      1.250675    47A      1.283166  
      48A      1.336707    49A      1.434729    50A      1.601203  
      51A      1.679259    52A      1.690495    53A      1.844687  
      54A      1.893519    55A      2.035809    56A      2.067958  
      57A      2.114569    58A      2.190597    59A      2.287079  
      60A      2.302467    61A      2.391621    62A      2.460468  
      63A      2.537242    64A      2.582404    65A      2.602131  
      66A      2.634939    67A      2.699739    68A      2.884101  
      69A      2.891341    70A      2.979617    71A      3.080474  
      72A      3.231130    73A      4.193791    74A      4.610977  
      75A      4.719945    76A      4.933650  

    Final Occupation by Irrep:
              A 
    DOCC [    17 ]

  Energy converged.

  @DF-RHF Final Energy:  -193.11279413117583

   => Energetics <=

    Nuclear Repulsion Energy =            135.8825495165654900
    One-Electron Energy =                -531.2603742972046348
    Two-Electron Energy =                 202.2650306494634833
    DFT Exchange-Correlation Energy =       0.0000000000000000
    Empirical Dispersion Energy =           0.0000000000000000
    PCM Polarization Energy =               0.0000000000000000
    EFP Energy =                            0.0000000000000000
    Total Energy =                       -193.1127941311756331

    Alert: EFP and PCM quantities not currently incorporated into SCF psivars.

Properties will be evaluated at   0.000000,   0.000000,   0.000000 Bohr
  ==> Properties <==


Properties computed using the SCF density matrix

  Nuclear Dipole Moment: (a.u.)
     X:    -0.2411      Y:    -3.7182      Z:    -0.6714

  Electronic Dipole Moment: (a.u.)
     X:     0.2246      Y:     3.1264      Z:     0.3345

  Dipole Moment: (a.u.)
     X:    -0.0166      Y:    -0.5918      Z:    -0.3369     Total:     0.6812

  Dipole Moment: (Debye)
     X:    -0.0422      Y:    -1.5043      Z:    -0.8563     Total:     1.7314


  Saving occupied orbitals to File 180.

*** tstop() called on cx1-3-15-4.cx1.hpc.ic.ac.uk at Tue Jul  5 16:25:03 2016
Module time:
	user time   =       2.89 seconds =       0.05 minutes
	system time =       0.03 seconds =       0.00 minutes
	total time  =          4 seconds =       0.07 minutes
Total time:
	user time   =       2.89 seconds =       0.05 minutes
	system time =       0.03 seconds =       0.00 minutes
	total time  =          4 seconds =       0.07 minutes


Properties will be evaluated at   0.000000,   0.000000,   0.000000 Bohr

Properties computed using the  density matrix

  Nuclear Dipole Moment: (a.u.)
     X:    -0.2411      Y:    -3.7182      Z:    -0.6714

  Electronic Dipole Moment: (a.u.)
     X:     0.2246      Y:     3.1264      Z:     0.3345

  Dipole Moment: (a.u.)
     X:    -0.0166      Y:    -0.5918      Z:    -0.3369     Total:     0.6812

  Dipole Moment: (Debye)
     X:    -0.0422      Y:    -1.5043      Z:    -0.8563     Total:     1.7314

  Quadrupole Moment: (Debye Ang)
    XX:   -27.0482     YY:   -29.8170     ZZ:   -23.7142
    XY:    -0.2947     XZ:    -0.0826     YZ:    -2.1021

  Traceless Quadrupole Moment: (Debye Ang)
    XX:    -0.1884     YY:    -2.9572     ZZ:     3.1456
    XY:    -0.2947     XZ:    -0.0826     YZ:    -2.1021

  Mulliken Charges: (a.u.)
   Center  Symbol    Alpha    Beta     Spin     Total
       1     H     0.28382  0.28382  0.00000  0.43235
       2     O     4.37100  4.37100  0.00000 -0.74200
       3     C     2.92113  2.92113  0.00000  0.15773
       4     C     3.24570  3.24570  0.00000 -0.49140
       5     C     3.24266  3.24266  0.00000 -0.48532
       6     H     0.41474  0.41474  0.00000  0.17052
       7     H     0.42736  0.42736  0.00000  0.14527
       8     H     0.41101  0.41101  0.00000  0.17798
       9     H     0.42043  0.42043  0.00000  0.15915
      10     H     0.42878  0.42878  0.00000  0.14244
      11     H     0.40992  0.40992  0.00000  0.18016
      12     H     0.42344  0.42344  0.00000  0.15312

   Total alpha = 17.00000, Total beta = 17.00000, Total charge = -0.00000


*** PSI4 exiting successfully. Buy a developer a beer!
