    -----------------------------------------------------------------------
          Psi4: An Open-Source Ab Initio Electronic Structure Package
                              Psi4 (no tag) Driver

                          Git: Rev {detached?}  

    J. M. Turney, A. C. Simmonett, R. M. Parrish, E. G. Hohenstein,
    F. A. Evangelista, J. T. Fermann, B. J. Mintz, L. A. Burns, J. J. Wilke,
    M. L. Abrams, N. J. Russ, M. L. Leininger, C. L. Janssen, E. T. Seidl,
    W. D. Allen, H. F. Schaefer, R. A. King, E. F. Valeev, C. D. Sherrill,
    and T. D. Crawford, WIREs Comput. Mol. Sci. 2, 556-565 (2012)
    (doi: 10.1002/wcms.93)

                         Additional Contributions by
    A. E. DePrince, M. Saitow, U. Bozkaya, A. Yu. Sokolov
    -----------------------------------------------------------------------


    Psi4 started on: Tue Jul  5 16:35:06 2016

    Process ID:  26474
    PSI4DATADIR: /export131/home/mjharvey/miniconda3/share
    Memory level set to 256.000 MB

  ==> Input File <==

--------------------------------------------------------------------------
set {
	reference rhf
	basis 6-31G*
}


set_num_threads( 1 )
memory 2 gb

molecule MOL {
0 1

H	 2.384862	 3.083990	 0.395444
O	 1.438868	 3.047716	 0.415122
C	 0.998035	 1.787922	 0.207814
C	 1.863297	 0.721740	 -0.001662
C	 -0.370060	 1.578764	 0.208979
H	 2.927643	 0.886673	 -0.002183
C	 1.360468	 -0.551673	 -0.209638
H	 -1.039507	 2.401428	 0.370661
C	 -0.865228	 0.300799	 0.000000
H	 2.039901	 -1.368880	 -0.370644
C	 -0.005377	 -0.769847	 -0.210105
C	 -2.333960	 0.069074	 0.000000
H	 -0.398119	 -1.758142	 -0.371447
O	 -2.847347	 -1.003763	 0.000000
H	 -2.943845	 0.977528	 0.000000

	symmetry c1
}
set optking {
	frozen_dihedral = ("
		4 3 2 1
	")
}

ee = energy('scf')
oeprop('DIPOLE', 'QUADRUPOLE', 'MULLIKEN_CHARGES')
f=open( 'psi4out.xyz', 'w' )
f.write( "15  " )
f.write( str(ee) + "\n" )
f.write( MOL.save_string_xyz() )
f.close()
--------------------------------------------------------------------------

  Memory set to   2.000 GiB by Python script.

*** tstart() called on cx1-3-16-3.cx1.hpc.ic.ac.uk
*** at Tue Jul  5 16:35:06 2016


         ---------------------------------------------------------
                                   SCF
            by Justin Turney, Rob Parrish, and Andy Simmonett
                              RHF Reference
                        1 Threads,   2000 MiB Core
         ---------------------------------------------------------

  ==> Geometry <==

    Molecular point group: c1
    Full point group: C1

    Geometry (in Angstrom), charge = 0, multiplicity = 1:

       Center              X                  Y                   Z               Mass       
    ------------   -----------------  -----------------  -----------------  -----------------
           H          2.481293737560     2.472782124589     0.341308690909     1.007825032070
           O          1.535299737560     2.436508124589     0.360986690909    15.994914619560
           C          1.094466737560     1.176714124589     0.153678690909    12.000000000000
           C          1.959728737560     0.110532124589    -0.055797309091    12.000000000000
           C         -0.273628262440     0.967556124589     0.154843690909    12.000000000000
           H          3.024074737560     0.275465124589    -0.056318309091     1.007825032070
           C          1.456899737560    -1.162880875411    -0.263773309091    12.000000000000
           H         -0.943075262440     1.790220124589     0.316525690909     1.007825032070
           C         -0.768796262440    -0.310408875411    -0.054135309091    12.000000000000
           H          2.136332737560    -1.980087875411    -0.424779309091     1.007825032070
           C          0.091054737560    -1.381054875411    -0.264240309091    12.000000000000
           C         -2.237528262440    -0.542133875411    -0.054135309091    12.000000000000
           H         -0.301687262440    -2.369349875411    -0.425582309091     1.007825032070
           O         -2.750915262440    -1.614970875411    -0.054135309091    15.994914619560
           H         -2.847413262440     0.366320124589    -0.054135309091     1.007825032070

  Running in c1 symmetry.

  Rotational constants: A =      0.12449  B =      0.03834  C =      0.02934 [cm^-1]
  Rotational constants: A =   3732.25634  B =   1149.49901  C =    879.69416 [MHz]
  Nuclear repulsion =  402.388568418201032

  Charge       = 0
  Multiplicity = 1
  Electrons    = 64
  Nalpha       = 32
  Nbeta        = 32

  ==> Algorithm <==

  SCF Algorithm Type is DF.
  DIIS enabled.
  MOM disabled.
  Fractional occupation disabled.
  Guess Type is CORE.
  Energy threshold   = 1.00e-06
  Density threshold  = 1.00e-06
  Integral threshold = 0.00e+00

  ==> Primary Basis <==

  Basis Set: 6-31G*
    Number of shells: 66
    Number of basis function: 147
    Number of Cartesian functions: 147
    Spherical Harmonics?: false
    Max angular momentum: 2

  ==> Pre-Iterations <==

   -------------------------------------------------------
    Irrep   Nso     Nmo     Nalpha   Nbeta   Ndocc  Nsocc
   -------------------------------------------------------
     A        147     147       0       0       0       0
   -------------------------------------------------------
    Total     147     147      32      32      32       0
   -------------------------------------------------------

 OEINTS: Overlap, kinetic, potential, dipole, and quadrupole integrals
         stored in file 35.

  ==> Integral Setup <==

  ==> DFJK: Density-Fitted J/K Matrices <==

    J tasked:                  Yes
    K tasked:                  Yes
    wK tasked:                  No
    OpenMP threads:              1
    Integrals threads:           1
    Memory (MB):              1430
    Algorithm:                Core
    Integral Cache:           NONE
    Schwarz Cutoff:          1E-12
    Fitting Condition:       1E-12

   => Auxiliary Basis Set <=

  Basis Set: 
    Number of shells: 270
    Number of basis function: 879
    Number of Cartesian functions: 879
    Spherical Harmonics?: false
    Max angular momentum: 3

  Minimum eigenvalue in the overlap matrix is 4.1734991639E-04.
  Using Symmetric Orthogonalization.
  SCF Guess: Core (One-Electron) Hamiltonian.

  ==> Iterations <==

                           Total Energy        Delta E     RMS |[F,P]|

   @DF-RHF iter   1:  -337.48328181392259   -3.37483e+02   6.26902e-02 
   @DF-RHF iter   2:  -237.41627231621413    1.00067e+02   7.49299e-02 DIIS
   @DF-RHF iter   3:  -324.71863894350798   -8.73024e+01   5.16608e-02 DIIS
   @DF-RHF iter   4:  -316.73406442606125    7.98457e+00   5.86525e-02 DIIS
   @DF-RHF iter   5:  -417.12997166881900   -1.00396e+02   1.07269e-02 DIIS
   @DF-RHF iter   6:  -417.82105833677457   -6.91087e-01   7.35149e-03 DIIS
   @DF-RHF iter   7:  -418.26659634458298   -4.45538e-01   1.14809e-03 DIIS
   @DF-RHF iter   8:  -418.28154201500712   -1.49457e-02   5.36540e-04 DIIS
   @DF-RHF iter   9:  -418.28510486805595   -3.56285e-03   1.93297e-04 DIIS
   @DF-RHF iter  10:  -418.28589200338075   -7.87135e-04   6.67384e-05 DIIS
   @DF-RHF iter  11:  -418.28599074728010   -9.87439e-05   2.45594e-05 DIIS
   @DF-RHF iter  12:  -418.28601335201091   -2.26047e-05   1.50050e-05 DIIS
   @DF-RHF iter  13:  -418.28602349246950   -1.01405e-05   5.49865e-06 DIIS
   @DF-RHF iter  14:  -418.28602590631937   -2.41385e-06   2.00716e-06 DIIS
   @DF-RHF iter  15:  -418.28602616718996   -2.60871e-07   8.13953e-07 DIIS

  ==> Post-Iterations <==

    Orbital Energies (a.u.)
    -----------------------

    Doubly Occupied:                                                      

       1A    -20.604164     2A    -20.565110     3A    -11.332838  
       4A    -11.314972     5A    -11.252167     6A    -11.250953  
       7A    -11.249068     8A    -11.246673     9A    -11.239138  
      10A     -1.423995    11A     -1.405668    12A     -1.169353  
      13A     -1.051155    14A     -1.024289    15A     -0.901298  
      16A     -0.846128    17A     -0.813599    18A     -0.737845  
      19A     -0.701900    20A     -0.673383    21A     -0.660739  
      22A     -0.627837    23A     -0.612531    24A     -0.604143  
      25A     -0.577091    26A     -0.549984    27A     -0.536465  
      28A     -0.516782    29A     -0.485519    30A     -0.423496  
      31A     -0.356478    32A     -0.323834  

    Virtual:                                                              

      33A      0.084604    34A      0.142573    35A      0.211154  
      36A      0.225475    37A      0.242925    38A      0.263766  
      39A      0.306788    40A      0.322019    41A      0.334377  
      42A      0.376370    43A      0.406212    44A      0.441422  
      45A      0.462410    46A      0.479295    47A      0.508472  
      48A      0.555306    49A      0.607131    50A      0.675513  
      51A      0.711089    52A      0.724523    53A      0.733908  
      54A      0.757237    55A      0.764780    56A      0.799709  
      57A      0.813263    58A      0.816735    59A      0.850424  
      60A      0.858966    61A      0.863159    62A      0.870854  
      63A      0.897193    64A      0.942399    65A      0.984497  
      66A      1.007528    67A      1.009991    68A      1.053867  
      69A      1.082229    70A      1.087583    71A      1.106644  
      72A      1.115831    73A      1.138077    74A      1.163096  
      75A      1.188503    76A      1.201557    77A      1.212086  
      78A      1.228090    79A      1.239858    80A      1.301151  
      81A      1.313743    82A      1.328166    83A      1.348203  
      84A      1.414669    85A      1.437663    86A      1.481328  
      87A      1.493869    88A      1.525012    89A      1.547736  
      90A      1.615892    91A      1.637125    92A      1.650162  
      93A      1.711922    94A      1.718037    95A      1.745982  
      96A      1.750881    97A      1.826376    98A      1.852561  
      99A      1.965705   100A      2.012218   101A      2.036485  
     102A      2.047028   103A      2.054387   104A      2.087496  
     105A      2.146725   106A      2.171069   107A      2.221896  
     108A      2.254012   109A      2.275532   110A      2.297029  
     111A      2.305001   112A      2.364316   113A      2.381828  
     114A      2.429182   115A      2.450427   116A      2.501277  
     117A      2.571335   118A      2.600976   119A      2.634039  
     120A      2.653498   121A      2.677402   122A      2.724108  
     123A      2.778132   124A      2.836598   125A      2.877786  
     126A      2.942052   127A      2.960524   128A      2.988746  
     129A      3.026395   130A      3.035276   131A      3.115942  
     132A      3.149375   133A      3.272900   134A      3.307864  
     135A      3.326751   136A      3.402928   137A      3.556736  
     138A      3.837996   139A      4.329076   140A      4.358863  
     141A      4.517785   142A      4.527531   143A      4.604918  
     144A      4.646324   145A      4.781730   146A      4.874193  
     147A      5.186407  

    Final Occupation by Irrep:
              A 
    DOCC [    32 ]

  Energy converged.

  @DF-RHF Final Energy:  -418.28602616718996

   => Energetics <=

    Nuclear Repulsion Energy =            402.3885684182010323
    One-Electron Energy =               -1367.1922986026791023
    Two-Electron Energy =                 546.5177040172875422
    DFT Exchange-Correlation Energy =       0.0000000000000000
    Empirical Dispersion Energy =           0.0000000000000000
    PCM Polarization Energy =               0.0000000000000000
    EFP Energy =                            0.0000000000000000
    Total Energy =                       -418.2860261671905846

    Alert: EFP and PCM quantities not currently incorporated into SCF psivars.

Properties will be evaluated at   0.000000,   0.000000,   0.000000 Bohr
  ==> Properties <==


Properties computed using the SCF density matrix

  Nuclear Dipole Moment: (a.u.)
     X:     3.3217      Y:     0.5246      Z:    -0.2826

  Electronic Dipole Moment: (a.u.)
     X:    -1.8852      Y:     0.1332      Z:     0.2071

  Dipole Moment: (a.u.)
     X:     1.4365      Y:     0.6578      Z:    -0.0755     Total:     1.5818

  Dipole Moment: (Debye)
     X:     3.6513      Y:     1.6719      Z:    -0.1919     Total:     4.0205


  Saving occupied orbitals to File 180.

*** tstop() called on cx1-3-16-3.cx1.hpc.ic.ac.uk at Tue Jul  5 16:35:23 2016
Module time:
	user time   =      16.05 seconds =       0.27 minutes
	system time =       0.07 seconds =       0.00 minutes
	total time  =         17 seconds =       0.28 minutes
Total time:
	user time   =      16.05 seconds =       0.27 minutes
	system time =       0.07 seconds =       0.00 minutes
	total time  =         17 seconds =       0.28 minutes


Properties will be evaluated at   0.000000,   0.000000,   0.000000 Bohr

Properties computed using the  density matrix

  Nuclear Dipole Moment: (a.u.)
     X:     3.3217      Y:     0.5246      Z:    -0.2826

  Electronic Dipole Moment: (a.u.)
     X:    -1.8852      Y:     0.1332      Z:     0.2071

  Dipole Moment: (a.u.)
     X:     1.4365      Y:     0.6578      Z:    -0.0755     Total:     1.5818

  Dipole Moment: (Debye)
     X:     3.6513      Y:     1.6719      Z:    -0.1919     Total:     4.0205

  Quadrupole Moment: (Debye Ang)
    XX:   -46.8553     YY:   -54.7361     ZZ:   -53.9950
    XY:    -5.6103     XZ:    -0.1127     YZ:     0.6844

  Traceless Quadrupole Moment: (Debye Ang)
    XX:     5.0068     YY:    -2.8740     ZZ:    -2.1328
    XY:    -5.6103     XZ:    -0.1127     YZ:     0.6844

  Mulliken Charges: (a.u.)
   Center  Symbol    Alpha    Beta     Spin     Total
       1     H     0.27006  0.27006  0.00000  0.45989
       2     O     4.37745  4.37745  0.00000 -0.75491
       3     C     2.79555  2.79555  0.00000  0.40891
       4     C     3.13528  3.13528  0.00000 -0.27056
       5     C     3.12677  3.12677  0.00000 -0.25354
       6     H     0.39921  0.39921  0.00000  0.20158
       7     C     3.09449  3.09449  0.00000 -0.18897
       8     H     0.38467  0.38467  0.00000  0.23065
       9     C     3.04433  3.04433  0.00000 -0.08867
      10     H     0.39216  0.39216  0.00000  0.21567
      11     C     3.10205  3.10205  0.00000 -0.20411
      12     C     2.83216  2.83216  0.00000  0.33567
      13     H     0.37898  0.37898  0.00000  0.24204
      14     O     4.24525  4.24525  0.00000 -0.49050
      15     H     0.42158  0.42158  0.00000  0.15684

   Total alpha = 32.00000, Total beta = 32.00000, Total charge =  0.00000


*** PSI4 exiting successfully. Buy a developer a beer!
