    -----------------------------------------------------------------------
          Psi4: An Open-Source Ab Initio Electronic Structure Package
                              Psi4 (no tag) Driver

                          Git: Rev {detached?}  

    J. M. Turney, A. C. Simmonett, R. M. Parrish, E. G. Hohenstein,
    F. A. Evangelista, J. T. Fermann, B. J. Mintz, L. A. Burns, J. J. Wilke,
    M. L. Abrams, N. J. Russ, M. L. Leininger, C. L. Janssen, E. T. Seidl,
    W. D. Allen, H. F. Schaefer, R. A. King, E. F. Valeev, C. D. Sherrill,
    and T. D. Crawford, WIREs Comput. Mol. Sci. 2, 556-565 (2012)
    (doi: 10.1002/wcms.93)

                         Additional Contributions by
    A. E. DePrince, M. Saitow, U. Bozkaya, A. Yu. Sokolov
    -----------------------------------------------------------------------


    Psi4 started on: Tue Jul  5 16:31:12 2016

    Process ID:  28822
    PSI4DATADIR: /export131/home/mjharvey/miniconda3/share
    Memory level set to 256.000 MB

  ==> Input File <==

--------------------------------------------------------------------------
set {
	reference rhf
	basis 6-31G*
}


set_num_threads( 1 )
memory 2 gb

molecule MOL {
0 1

H	 -1.546115	 0.675197	 2.225001
C	 -1.152791	 0.357188	 1.279712
C	 -1.935045	 0.420530	 0.079050
C	 0.096180	 -0.116104	 1.182321
H	 -2.942024	 0.795993	 0.124510
C	 -1.421354	 0.017006	 -1.091742
H	 0.746006	 -0.195808	 2.033072
N	 0.640212	 -0.532897	 -0.000111
H	 -1.976107	 0.049777	 -2.009092
C	 -0.062221	 -0.497932	 -1.197459
C	 2.010177	 -1.032049	 0.000042
O	 0.436182	 -0.870314	 -2.230480
H	 2.187698	 -1.635381	 -0.882279
H	 2.677579	 -0.189247	 -0.001871
H	 2.188882	 -1.632203	 0.884288

	symmetry c1
}
ee = energy('scf')
oeprop('DIPOLE', 'QUADRUPOLE', 'MULLIKEN_CHARGES')
f=open( 'psi4out.xyz', 'w' )
f.write( "15  " )
f.write( str(ee) + "\n" )
f.write( MOL.save_string_xyz() )
f.close()
--------------------------------------------------------------------------

  Memory set to   2.000 GiB by Python script.

*** tstart() called on cx1-3-2-3.cx1.hpc.ic.ac.uk
*** at Tue Jul  5 16:31:13 2016


         ---------------------------------------------------------
                                   SCF
            by Justin Turney, Rob Parrish, and Andy Simmonett
                              RHF Reference
                        1 Threads,   2000 MiB Core
         ---------------------------------------------------------

  ==> Geometry <==

    Molecular point group: c1
    Full point group: C1

    Geometry (in Angstrom), charge = 0, multiplicity = 1:

       Center              X                  Y                   Z               Mass       
    ------------   -----------------  -----------------  -----------------  -----------------
           H         -1.433393001091     0.984657094920     2.502505207236     1.007825032070
           C         -1.040069001091     0.666648094920     1.557216207236    12.000000000000
           C         -1.822323001091     0.729990094920     0.356554207236    12.000000000000
           C          0.208901998909     0.193356094920     1.459825207236    12.000000000000
           H         -2.829302001091     1.105453094920     0.402014207236     1.007825032070
           C         -1.308632001091     0.326466094920    -0.814237792764    12.000000000000
           H          0.858727998909     0.113652094920     2.310576207236     1.007825032070
           N          0.752933998909    -0.223436905080     0.277393207236    14.003074004780
           H         -1.863385001091     0.359237094920    -1.731587792764     1.007825032070
           C          0.050500998909    -0.188471905080    -0.919954792764    12.000000000000
           C          2.122898998909    -0.722588905080     0.277546207236    12.000000000000
           O          0.548903998909    -0.560853905080    -1.952975792764    15.994914619560
           H          2.300419998909    -1.325920905080    -0.604774792764     1.007825032070
           H          2.790300998909     0.120213094920     0.275633207236     1.007825032070
           H          2.301603998909    -1.322742905080     1.161792207236     1.007825032070

  Running in c1 symmetry.

  Rotational constants: A =      0.11492  B =      0.07866  C =      0.04710 [cm^-1]
  Rotational constants: A =   3445.17980  B =   2358.02134  C =   1412.10637 [MHz]
  Nuclear repulsion =  357.529698095346475

  Charge       = 0
  Multiplicity = 1
  Electrons    = 58
  Nalpha       = 29
  Nbeta        = 29

  ==> Algorithm <==

  SCF Algorithm Type is DF.
  DIIS enabled.
  MOM disabled.
  Fractional occupation disabled.
  Guess Type is CORE.
  Energy threshold   = 1.00e-06
  Density threshold  = 1.00e-06
  Integral threshold = 0.00e+00

  ==> Primary Basis <==

  Basis Set: 6-31G*
    Number of shells: 62
    Number of basis function: 134
    Number of Cartesian functions: 134
    Spherical Harmonics?: false
    Max angular momentum: 2

  ==> Pre-Iterations <==

   -------------------------------------------------------
    Irrep   Nso     Nmo     Nalpha   Nbeta   Ndocc  Nsocc
   -------------------------------------------------------
     A        134     134       0       0       0       0
   -------------------------------------------------------
    Total     134     134      29      29      29       0
   -------------------------------------------------------

 OEINTS: Overlap, kinetic, potential, dipole, and quadrupole integrals
         stored in file 35.

  ==> Integral Setup <==

  ==> DFJK: Density-Fitted J/K Matrices <==

    J tasked:                  Yes
    K tasked:                  Yes
    wK tasked:                  No
    OpenMP threads:              1
    Integrals threads:           1
    Memory (MB):              1430
    Algorithm:                Core
    Integral Cache:           NONE
    Schwarz Cutoff:          1E-12
    Fitting Condition:       1E-12

   => Auxiliary Basis Set <=

  Basis Set: 
    Number of shells: 255
    Number of basis function: 823
    Number of Cartesian functions: 823
    Spherical Harmonics?: false
    Max angular momentum: 3

  Minimum eigenvalue in the overlap matrix is 7.0257616632E-04.
  Using Symmetric Orthogonalization.
  SCF Guess: Core (One-Electron) Hamiltonian.

  ==> Iterations <==

                           Total Energy        Delta E     RMS |[F,P]|

   @DF-RHF iter   1:  -284.73048109413935   -2.84730e+02   6.98575e-02 
   @DF-RHF iter   2:  -277.29796402835188    7.43252e+00   5.28533e-02 DIIS
   @DF-RHF iter   3:  -320.92415710911428   -4.36262e+01   5.11947e-02 DIIS
   @DF-RHF iter   4:  -356.11310409576538   -3.51889e+01   1.80123e-02 DIIS
   @DF-RHF iter   5:  -358.51076158070043   -2.39766e+00   1.38647e-02 DIIS
   @DF-RHF iter   6:  -360.52314851060123   -2.01239e+00   2.05315e-03 DIIS
   @DF-RHF iter   7:  -360.58261133194560   -5.94628e-02   8.05884e-04 DIIS
   @DF-RHF iter   8:  -360.59140037261216   -8.78904e-03   3.53859e-04 DIIS
   @DF-RHF iter   9:  -360.59433137944893   -2.93101e-03   1.96562e-04 DIIS
   @DF-RHF iter  10:  -360.59539252282912   -1.06114e-03   6.09066e-05 DIIS
   @DF-RHF iter  11:  -360.59549858746720   -1.06065e-04   2.00755e-05 DIIS
   @DF-RHF iter  12:  -360.59550991028675   -1.13228e-05   1.16267e-05 DIIS
   @DF-RHF iter  13:  -360.59551301190390   -3.10162e-06   4.16347e-06 DIIS
   @DF-RHF iter  14:  -360.59551348833975   -4.76436e-07   9.66960e-07 DIIS

  ==> Post-Iterations <==

    Orbital Energies (a.u.)
    -----------------------

    Doubly Occupied:                                                      

       1A    -20.508446     2A    -15.621432     3A    -11.343042  
       4A    -11.296726     5A    -11.265646     6A    -11.260089  
       7A    -11.233485     8A    -11.228836     9A     -1.383729  
      10A     -1.281251    11A     -1.114645    12A     -1.025559  
      13A     -0.970454    14A     -0.872128    15A     -0.835196  
      16A     -0.715169    17A     -0.697614    18A     -0.661009  
      19A     -0.649758    20A     -0.621624    21A     -0.606435  
      22A     -0.571299    23A     -0.553309    24A     -0.546878  
      25A     -0.526328    26A     -0.476231    27A     -0.413404  
      28A     -0.405705    29A     -0.304871  

    Virtual:                                                              

      30A      0.109801    31A      0.181812    32A      0.229409  
      33A      0.252479    34A      0.286089    35A      0.306743  
      36A      0.308151    37A      0.327409    38A      0.329180  
      39A      0.344262    40A      0.370879    41A      0.431774  
      42A      0.464338    43A      0.479336    44A      0.506788  
      45A      0.532396    46A      0.633478    47A      0.692925  
      48A      0.698308    49A      0.736169    50A      0.747946  
      51A      0.755800    52A      0.791186    53A      0.799725  
      54A      0.807472    55A      0.822197    56A      0.851328  
      57A      0.864750    58A      0.892084    59A      0.953781  
      60A      0.956614    61A      0.974730    62A      0.988091  
      63A      1.040586    64A      1.069350    65A      1.100882  
      66A      1.113653    67A      1.121793    68A      1.136517  
      69A      1.171099    70A      1.173957    71A      1.195313  
      72A      1.207544    73A      1.227195    74A      1.251482  
      75A      1.296315    76A      1.320291    77A      1.357158  
      78A      1.405034    79A      1.438887    80A      1.482618  
      81A      1.487764    82A      1.538490    83A      1.605822  
      84A      1.638406    85A      1.687228    86A      1.712917  
      87A      1.717462    88A      1.745007    89A      1.767067  
      90A      1.769253    91A      1.939390    92A      1.997510  
      93A      2.066679    94A      2.103960    95A      2.172043  
      96A      2.182281    97A      2.206643    98A      2.240235  
      99A      2.264734   100A      2.291939   101A      2.330104  
     102A      2.359447   103A      2.370954   104A      2.440167  
     105A      2.442422   106A      2.488431   107A      2.506855  
     108A      2.563684   109A      2.602872   110A      2.645233  
     111A      2.665416   112A      2.708866   113A      2.711005  
     114A      2.738540   115A      2.921815   116A      2.947057  
     117A      3.020308   118A      3.032477   119A      3.048363  
     120A      3.097159   121A      3.167597   122A      3.203151  
     123A      3.257785   124A      3.406296   125A      3.601882  
     126A      3.820478   127A      4.447568   128A      4.503321  
     129A      4.559005   130A      4.644144   131A      4.686103  
     132A      4.766578   133A      4.918962   134A      5.158033  

    Final Occupation by Irrep:
              A 
    DOCC [    29 ]

  Energy converged.

  @DF-RHF Final Energy:  -360.59551348833975

   => Energetics <=

    Nuclear Repulsion Energy =            357.5296980953464754
    One-Electron Energy =               -1198.2697830191495996
    Two-Electron Energy =                 480.1445714354641154
    DFT Exchange-Correlation Energy =       0.0000000000000000
    Empirical Dispersion Energy =           0.0000000000000000
    PCM Polarization Energy =               0.0000000000000000
    EFP Energy =                            0.0000000000000000
    Total Energy =                       -360.5955134883390087

    Alert: EFP and PCM quantities not currently incorporated into SCF psivars.

Properties will be evaluated at   0.000000,   0.000000,   0.000000 Bohr
  ==> Properties <==


Properties computed using the SCF density matrix

  Nuclear Dipole Moment: (a.u.)
     X:     1.9925      Y:     0.0303      Z:     4.0361

  Electronic Dipole Moment: (a.u.)
     X:    -2.0514      Y:     0.2860      Z:    -2.3437

  Dipole Moment: (a.u.)
     X:    -0.0588      Y:     0.3163      Z:     1.6924     Total:     1.7227

  Dipole Moment: (Debye)
     X:    -0.1495      Y:     0.8041      Z:     4.3016     Total:     4.3786


  Saving occupied orbitals to File 180.

*** tstop() called on cx1-3-2-3.cx1.hpc.ic.ac.uk at Tue Jul  5 16:31:25 2016
Module time:
	user time   =      12.32 seconds =       0.21 minutes
	system time =       0.07 seconds =       0.00 minutes
	total time  =         12 seconds =       0.20 minutes
Total time:
	user time   =      12.32 seconds =       0.21 minutes
	system time =       0.07 seconds =       0.00 minutes
	total time  =         12 seconds =       0.20 minutes


Properties will be evaluated at   0.000000,   0.000000,   0.000000 Bohr

Properties computed using the  density matrix

  Nuclear Dipole Moment: (a.u.)
     X:     1.9925      Y:     0.0303      Z:     4.0361

  Electronic Dipole Moment: (a.u.)
     X:    -2.0514      Y:     0.2860      Z:    -2.3437

  Dipole Moment: (a.u.)
     X:    -0.0588      Y:     0.3163      Z:     1.6924     Total:     1.7227

  Dipole Moment: (Debye)
     X:    -0.1495      Y:     0.8041      Z:     4.3016     Total:     4.3786

  Quadrupole Moment: (Debye Ang)
    XX:   -39.6908     YY:   -48.1617     ZZ:   -50.7962
    XY:    -2.8439     XZ:     3.9262     YZ:    -1.7192

  Traceless Quadrupole Moment: (Debye Ang)
    XX:     6.5255     YY:    -1.9455     ZZ:    -4.5800
    XY:    -2.8439     XZ:     3.9262     YZ:    -1.7192

  Mulliken Charges: (a.u.)
   Center  Symbol    Alpha    Beta     Spin     Total
       1     H     0.39290  0.39290  0.00000  0.21420
       2     C     3.16144  3.16144  0.00000 -0.32287
       3     C     3.05844  3.05844  0.00000 -0.11688
       4     C     2.92159  2.92159  0.00000  0.15682
       5     H     0.39092  0.39092  0.00000  0.21817
       6     C     3.16988  3.16988  0.00000 -0.33976
       7     H     0.38799  0.38799  0.00000  0.22403
       8     N     3.86521  3.86521  0.00000 -0.73042
       9     H     0.38646  0.38646  0.00000  0.22709
      10     C     2.59424  2.59424  0.00000  0.81151
      11     C     3.15205  3.15205  0.00000 -0.30411
      12     O     4.32141  4.32141  0.00000 -0.64282
      13     H     0.37841  0.37841  0.00000  0.24317
      14     H     0.40630  0.40630  0.00000  0.18741
      15     H     0.41276  0.41276  0.00000  0.17448

   Total alpha = 29.00000, Total beta = 29.00000, Total charge =  0.00000


*** PSI4 exiting successfully. Buy a developer a beer!
