    -----------------------------------------------------------------------
          Psi4: An Open-Source Ab Initio Electronic Structure Package
                              Psi4 (no tag) Driver

                          Git: Rev {detached?}  

    J. M. Turney, A. C. Simmonett, R. M. Parrish, E. G. Hohenstein,
    F. A. Evangelista, J. T. Fermann, B. J. Mintz, L. A. Burns, J. J. Wilke,
    M. L. Abrams, N. J. Russ, M. L. Leininger, C. L. Janssen, E. T. Seidl,
    W. D. Allen, H. F. Schaefer, R. A. King, E. F. Valeev, C. D. Sherrill,
    and T. D. Crawford, WIREs Comput. Mol. Sci. 2, 556-565 (2012)
    (doi: 10.1002/wcms.93)

                         Additional Contributions by
    A. E. DePrince, M. Saitow, U. Bozkaya, A. Yu. Sokolov
    -----------------------------------------------------------------------


    Psi4 started on: Tue Jul  5 16:27:12 2016

    Process ID:  20328
    PSI4DATADIR: /export131/home/mjharvey/miniconda3/share
    Memory level set to 256.000 MB

  ==> Input File <==

--------------------------------------------------------------------------
set {
	reference rhf
	basis 6-31G*
}


set_num_threads( 1 )
memory 2 gb

molecule MOL {
0 1

H	 -0.944757	 -0.000069	 1.678017
O	 -0.042387	 -0.000390	 1.388199
C	 -0.001487	 0.000018	 -0.026623
C	 -1.090207	 0.927374	 -0.570075
C	 1.382519	 0.449732	 -0.498777
C	 -0.268830	 -1.444725	 -0.433644
H	 -1.113081	 0.918085	 -1.655105
H	 -0.917998	 1.953142	 -0.252192
H	 -2.062826	 0.620461	 -0.201516
H	 1.459761	 0.423037	 -1.581094
H	 1.587813	 1.468527	 -0.178088
H	 2.148809	 -0.194403	 -0.081923
H	 -0.259102	 -1.552694	 -1.513455
H	 -1.235629	 -1.765662	 -0.062447
H	 0.487465	 -2.098217	 -0.013693

	symmetry c1
}
ee = energy('scf')
oeprop('DIPOLE', 'QUADRUPOLE', 'MULLIKEN_CHARGES')
f=open( 'psi4out.xyz', 'w' )
f.write( "15  " )
f.write( str(ee) + "\n" )
f.write( MOL.save_string_xyz() )
f.close()
--------------------------------------------------------------------------

  Memory set to   2.000 GiB by Python script.

*** tstart() called on cx1-3-15-2.cx1.hpc.ic.ac.uk
*** at Tue Jul  5 16:27:13 2016


         ---------------------------------------------------------
                                   SCF
            by Justin Turney, Rob Parrish, and Andy Simmonett
                              RHF Reference
                        1 Threads,   2000 MiB Core
         ---------------------------------------------------------

  ==> Geometry <==

    Molecular point group: c1
    Full point group: C1

    Geometry (in Angstrom), charge = 0, multiplicity = 1:

       Center              X                  Y                   Z               Mass       
    ------------   -----------------  -----------------  -----------------  -----------------
           H         -0.927608695835     0.014066017791     1.678516720109     1.007825032070
           O         -0.025238695835     0.013745017791     1.388698720109    15.994914619560
           C          0.015661304165     0.014153017791    -0.026123279891    12.000000000000
           C         -1.073058695835     0.941509017791    -0.569575279891    12.000000000000
           C          1.399667304165     0.463867017791    -0.498277279891    12.000000000000
           C         -0.251681695835    -1.430589982209    -0.433144279891    12.000000000000
           H         -1.095932695835     0.932220017791    -1.654605279891     1.007825032070
           H         -0.900849695835     1.967277017791    -0.251692279891     1.007825032070
           H         -2.045677695835     0.634596017791    -0.201016279891     1.007825032070
           H          1.476909304165     0.437172017791    -1.580594279891     1.007825032070
           H          1.604961304165     1.482662017791    -0.177588279891     1.007825032070
           H          2.165957304165    -0.180267982209    -0.081423279891     1.007825032070
           H         -0.241953695835    -1.538558982209    -1.512955279891     1.007825032070
           H         -1.218480695835    -1.751526982209    -0.061947279891     1.007825032070
           H          0.504613304165    -2.084081982209    -0.013193279891     1.007825032070

  Running in c1 symmetry.

  Rotational constants: A =      0.16035  B =      0.15815  C =      0.14919 [cm^-1]
  Rotational constants: A =   4807.16103  B =   4741.33349  C =   4472.61487 [MHz]
  Nuclear repulsion =  200.412499608398718

  Charge       = 0
  Multiplicity = 1
  Electrons    = 42
  Nalpha       = 21
  Nbeta        = 21

  ==> Algorithm <==

  SCF Algorithm Type is DF.
  DIIS enabled.
  MOM disabled.
  Fractional occupation disabled.
  Guess Type is CORE.
  Energy threshold   = 1.00e-06
  Density threshold  = 1.00e-06
  Integral threshold = 0.00e+00

  ==> Primary Basis <==

  Basis Set: 6-31G*
    Number of shells: 50
    Number of basis function: 95
    Number of Cartesian functions: 95
    Spherical Harmonics?: false
    Max angular momentum: 2

  ==> Pre-Iterations <==

   -------------------------------------------------------
    Irrep   Nso     Nmo     Nalpha   Nbeta   Ndocc  Nsocc
   -------------------------------------------------------
     A         95      95       0       0       0       0
   -------------------------------------------------------
    Total      95      95      21      21      21       0
   -------------------------------------------------------

 OEINTS: Overlap, kinetic, potential, dipole, and quadrupole integrals
         stored in file 35.

  ==> Integral Setup <==

  ==> DFJK: Density-Fitted J/K Matrices <==

    J tasked:                  Yes
    K tasked:                  Yes
    wK tasked:                  No
    OpenMP threads:              1
    Integrals threads:           1
    Memory (MB):              1430
    Algorithm:                Core
    Integral Cache:           NONE
    Schwarz Cutoff:          1E-12
    Fitting Condition:       1E-12

   => Auxiliary Basis Set <=

  Basis Set: 
    Number of shells: 210
    Number of basis function: 655
    Number of Cartesian functions: 655
    Spherical Harmonics?: false
    Max angular momentum: 3

  Minimum eigenvalue in the overlap matrix is 3.3291448199E-03.
  Using Symmetric Orthogonalization.
  SCF Guess: Core (One-Electron) Hamiltonian.

  ==> Iterations <==

                           Total Energy        Delta E     RMS |[F,P]|

   @DF-RHF iter   1:  -175.15324894204201   -1.75153e+02   1.02067e-01 
   @DF-RHF iter   2:  -187.02615821219842   -1.18729e+01   4.73527e-02 DIIS
   @DF-RHF iter   3:  -190.02506093036044   -2.99890e+00   7.73191e-02 DIIS
   @DF-RHF iter   4:  -217.70382239412123   -2.76788e+01   4.72308e-02 DIIS
   @DF-RHF iter   5:  -227.70209081464947   -9.99827e+00   3.12213e-02 DIIS
   @DF-RHF iter   6:  -229.31283410852774   -1.61074e+00   2.43427e-02 DIIS
   @DF-RHF iter   7:  -231.27711022793591   -1.96428e+00   1.33095e-02 DIIS
   @DF-RHF iter   8:  -232.06220683553784   -7.85097e-01   3.98154e-03 DIIS
   @DF-RHF iter   9:  -232.13278852350749   -7.05817e-02   1.89844e-03 DIIS
   @DF-RHF iter  10:  -232.15008263638515   -1.72941e-02   3.44706e-04 DIIS
   @DF-RHF iter  11:  -232.15071626031056   -6.33624e-04   9.15777e-05 DIIS
   @DF-RHF iter  12:  -232.15079988348538   -8.36232e-05   3.31041e-05 DIIS
   @DF-RHF iter  13:  -232.15080669973042   -6.81625e-06   6.24849e-06 DIIS
   @DF-RHF iter  14:  -232.15080702616228   -3.26432e-07   1.26206e-06 DIIS
   @DF-RHF iter  15:  -232.15080704156145   -1.53992e-08   3.35267e-07 DIIS

  ==> Post-Iterations <==

    Orbital Energies (a.u.)
    -----------------------

    Doubly Occupied:                                                      

       1A    -20.547097     2A    -11.282060     3A    -11.215172  
       4A    -11.209039     5A    -11.205040     6A     -1.360248  
       7A     -1.063221     8A     -0.943762     9A     -0.937884  
      10A     -0.776383    11A     -0.668732    12A     -0.626201  
      13A     -0.618629    14A     -0.572967    15A     -0.560568  
      16A     -0.535674    17A     -0.517410    18A     -0.508968  
      19A     -0.502576    20A     -0.456522    21A     -0.421662  

    Virtual:                                                              

      22A      0.206812    23A      0.264990    24A      0.277642  
      25A      0.304097    26A      0.307927    27A      0.313842  
      28A      0.322398    29A      0.354054    30A      0.361014  
      31A      0.381328    32A      0.387164    33A      0.426797  
      34A      0.429799    35A      0.459077    36A      0.707175  
      37A      0.709105    38A      0.765766    39A      0.781354  
      40A      0.798651    41A      0.870825    42A      0.908721  
      43A      0.917144    44A      0.923231    45A      0.997961  
      46A      1.005126    47A      1.093111    48A      1.125770  
      49A      1.148189    50A      1.162671    51A      1.180306  
      52A      1.183903    53A      1.192887    54A      1.215421  
      55A      1.217304    56A      1.223315    57A      1.257666  
      58A      1.265892    59A      1.311785    60A      1.347641  
      61A      1.471345    62A      1.626574    63A      1.666555  
      64A      1.684544    65A      1.698802    66A      1.839331  
      67A      2.008162    68A      2.021249    69A      2.041683  
      70A      2.087793    71A      2.147360    72A      2.183151  
      73A      2.214510    74A      2.251824    75A      2.408204  
      76A      2.426143    77A      2.475989    78A      2.550993  
      79A      2.569434    80A      2.580487    81A      2.603788  
      82A      2.617704    83A      2.626523    84A      2.725753  
      85A      2.792232    86A      2.968934    87A      3.010851  
      88A      3.084825    89A      3.094627    90A      3.271617  
      91A      4.225119    92A      4.622678    93A      4.737216  
      94A      4.748803    95A      5.062362  

    Final Occupation by Irrep:
              A 
    DOCC [    21 ]

  Energy converged.

  @DF-RHF Final Energy:  -232.15080704156145

   => Energetics <=

    Nuclear Repulsion Energy =            200.4124996083987185
    One-Electron Energy =                -712.0668599300892083
    Two-Electron Energy =                 279.5035532801291538
    DFT Exchange-Correlation Energy =       0.0000000000000000
    Empirical Dispersion Energy =           0.0000000000000000
    PCM Polarization Energy =               0.0000000000000000
    EFP Energy =                            0.0000000000000000
    Total Energy =                       -232.1508070415613361

    Alert: EFP and PCM quantities not currently incorporated into SCF psivars.

Properties will be evaluated at   0.000000,   0.000000,   0.000000 Bohr
  ==> Properties <==


Properties computed using the SCF density matrix

  Nuclear Dipole Moment: (a.u.)
     X:    -0.6358      Y:    -0.0810      Z:    -3.6087

  Electronic Dipole Moment: (a.u.)
     X:     0.1284      Y:     0.1237      Z:     3.1949

  Dipole Moment: (a.u.)
     X:    -0.5074      Y:     0.0428      Z:    -0.4138     Total:     0.6562

  Dipole Moment: (Debye)
     X:    -1.2897      Y:     0.1087      Z:    -1.0518     Total:     1.6678


  Saving occupied orbitals to File 180.

*** tstop() called on cx1-3-15-2.cx1.hpc.ic.ac.uk at Tue Jul  5 16:27:21 2016
Module time:
	user time   =       8.23 seconds =       0.14 minutes
	system time =       0.04 seconds =       0.00 minutes
	total time  =          8 seconds =       0.13 minutes
Total time:
	user time   =       8.23 seconds =       0.14 minutes
	system time =       0.04 seconds =       0.00 minutes
	total time  =          8 seconds =       0.13 minutes


Properties will be evaluated at   0.000000,   0.000000,   0.000000 Bohr

Properties computed using the  density matrix

  Nuclear Dipole Moment: (a.u.)
     X:    -0.6358      Y:    -0.0810      Z:    -3.6087

  Electronic Dipole Moment: (a.u.)
     X:     0.1284      Y:     0.1237      Z:     3.1949

  Dipole Moment: (a.u.)
     X:    -0.5074      Y:     0.0428      Z:    -0.4138     Total:     0.6562

  Dipole Moment: (Debye)
     X:    -1.2897      Y:     0.1087      Z:    -1.0518     Total:     1.6678

  Quadrupole Moment: (Debye Ang)
    XX:   -31.5770     YY:   -33.6632     ZZ:   -34.5836
    XY:    -0.1003     XZ:    -3.0676     YZ:    -0.2848

  Traceless Quadrupole Moment: (Debye Ang)
    XX:     1.6976     YY:    -0.3886     ZZ:    -1.3090
    XY:    -0.1003     XZ:    -3.0676     YZ:    -0.2848

  Mulliken Charges: (a.u.)
   Center  Symbol    Alpha    Beta     Spin     Total
       1     H     0.28218  0.28218  0.00000  0.43563
       2     O     4.37794  4.37794  0.00000 -0.75587
       3     C     2.85227  2.85227  0.00000  0.29545
       4     C     3.24763  3.24763  0.00000 -0.49526
       5     C     3.23691  3.23691  0.00000 -0.47381
       6     C     3.23051  3.23051  0.00000 -0.46102
       7     H     0.41801  0.41801  0.00000  0.16397
       8     H     0.41297  0.41297  0.00000  0.17407
       9     H     0.42627  0.42627  0.00000  0.14746
      10     H     0.42154  0.42154  0.00000  0.15692
      11     H     0.41495  0.41495  0.00000  0.17009
      12     H     0.41247  0.41247  0.00000  0.17506
      13     H     0.42674  0.42674  0.00000  0.14653
      14     H     0.42690  0.42690  0.00000  0.14620
      15     H     0.41271  0.41271  0.00000  0.17458

   Total alpha = 21.00000, Total beta = 21.00000, Total charge = -0.00000


*** PSI4 exiting successfully. Buy a developer a beer!
