    -----------------------------------------------------------------------
          Psi4: An Open-Source Ab Initio Electronic Structure Package
                              Psi4 (no tag) Driver

                          Git: Rev {detached?}  

    J. M. Turney, A. C. Simmonett, R. M. Parrish, E. G. Hohenstein,
    F. A. Evangelista, J. T. Fermann, B. J. Mintz, L. A. Burns, J. J. Wilke,
    M. L. Abrams, N. J. Russ, M. L. Leininger, C. L. Janssen, E. T. Seidl,
    W. D. Allen, H. F. Schaefer, R. A. King, E. F. Valeev, C. D. Sherrill,
    and T. D. Crawford, WIREs Comput. Mol. Sci. 2, 556-565 (2012)
    (doi: 10.1002/wcms.93)

                         Additional Contributions by
    A. E. DePrince, M. Saitow, U. Bozkaya, A. Yu. Sokolov
    -----------------------------------------------------------------------


    Psi4 started on: Tue Jul  5 16:34:07 2016

    Process ID:  25122
    PSI4DATADIR: /export131/home/mjharvey/miniconda3/share
    Memory level set to 256.000 MB

  ==> Input File <==

--------------------------------------------------------------------------
set {
	reference rhf
	basis 6-31G*
}


set_num_threads( 1 )
memory 2 gb

molecule MOL {
0 1

H	 -3.161837	 0.500524	 -0.000234
C	 -2.367097	 -0.232926	 -0.000000
O	 -1.158440	 0.455814	 -0.000122
H	 -2.468853	 -0.861886	 -0.882833
H	 -2.468942	 -0.861421	 0.883154
C	 -0.038095	 -0.350520	 0.206096
C	 1.204841	 0.521957	 0.182548
H	 0.021594	 -1.115606	 -0.569133
H	 -0.119190	 -0.868264	 1.162795
C	 2.486552	 -0.280763	 0.401040
H	 1.244362	 1.039117	 -0.771205
H	 1.104648	 1.284712	 0.948620
H	 2.618461	 -1.034680	 -0.370085
H	 3.357019	 0.366295	 0.379875
H	 2.477488	 -0.788001	 1.361785

	symmetry c1
}
set optking {
	frozen_dihedral = ("
		11 7 6 8,
		8 6 3 2
	")
}

ee = energy('scf')
oeprop('DIPOLE', 'QUADRUPOLE', 'MULLIKEN_CHARGES')
f=open( 'psi4out.xyz', 'w' )
f.write( "15  " )
f.write( str(ee) + "\n" )
f.write( MOL.save_string_xyz() )
f.close()
--------------------------------------------------------------------------

  Memory set to   2.000 GiB by Python script.

*** tstart() called on cx1-3-16-3.cx1.hpc.ic.ac.uk
*** at Tue Jul  5 16:34:08 2016


         ---------------------------------------------------------
                                   SCF
            by Justin Turney, Rob Parrish, and Andy Simmonett
                              RHF Reference
                        1 Threads,   2000 MiB Core
         ---------------------------------------------------------

  ==> Geometry <==

    Molecular point group: c1
    Full point group: C1

    Geometry (in Angstrom), charge = 0, multiplicity = 1:

       Center              X                  Y                   Z               Mass       
    ------------   -----------------  -----------------  -----------------  -----------------
           H         -3.155497259556     0.489370600253    -0.157291723012     1.007825032070
           C         -2.360757259556    -0.244079399747    -0.157057723012    12.000000000000
           O         -1.152100259556     0.444660600253    -0.157179723012    15.994914619560
           H         -2.462513259556    -0.873039399747    -1.039890723012     1.007825032070
           H         -2.462602259556    -0.872574399747     0.726096276988     1.007825032070
           C         -0.031755259556    -0.361673399747     0.049038276988    12.000000000000
           C          1.211180740444     0.510803600253     0.025490276988    12.000000000000
           H          0.027933740444    -1.126759399747    -0.726190723012     1.007825032070
           H         -0.112850259556    -0.879417399747     1.005737276988     1.007825032070
           C          2.492891740444    -0.291916399747     0.243982276988    12.000000000000
           H          1.250701740444     1.027963600253    -0.928262723012     1.007825032070
           H          1.110987740444     1.273558600253     0.791562276988     1.007825032070
           H          2.624800740444    -1.045833399747    -0.527142723012     1.007825032070
           H          3.363358740444     0.355141600253     0.222817276988     1.007825032070
           H          2.483827740444    -0.799154399747     1.204727276988     1.007825032070

  Running in c1 symmetry.

  Rotational constants: A =      0.68941  B =      0.07094  C =      0.06751 [cm^-1]
  Rotational constants: A =  20668.07776  B =   2126.58381  C =   2024.04750 [MHz]
  Nuclear repulsion =  189.732672834671490

  Charge       = 0
  Multiplicity = 1
  Electrons    = 42
  Nalpha       = 21
  Nbeta        = 21

  ==> Algorithm <==

  SCF Algorithm Type is DF.
  DIIS enabled.
  MOM disabled.
  Fractional occupation disabled.
  Guess Type is CORE.
  Energy threshold   = 1.00e-06
  Density threshold  = 1.00e-06
  Integral threshold = 0.00e+00

  ==> Primary Basis <==

  Basis Set: 6-31G*
    Number of shells: 50
    Number of basis function: 95
    Number of Cartesian functions: 95
    Spherical Harmonics?: false
    Max angular momentum: 2

  ==> Pre-Iterations <==

   -------------------------------------------------------
    Irrep   Nso     Nmo     Nalpha   Nbeta   Ndocc  Nsocc
   -------------------------------------------------------
     A         95      95       0       0       0       0
   -------------------------------------------------------
    Total      95      95      21      21      21       0
   -------------------------------------------------------

 OEINTS: Overlap, kinetic, potential, dipole, and quadrupole integrals
         stored in file 35.

  ==> Integral Setup <==

  ==> DFJK: Density-Fitted J/K Matrices <==

    J tasked:                  Yes
    K tasked:                  Yes
    wK tasked:                  No
    OpenMP threads:              1
    Integrals threads:           1
    Memory (MB):              1430
    Algorithm:                Core
    Integral Cache:           NONE
    Schwarz Cutoff:          1E-12
    Fitting Condition:       1E-12

   => Auxiliary Basis Set <=

  Basis Set: 
    Number of shells: 210
    Number of basis function: 655
    Number of Cartesian functions: 655
    Spherical Harmonics?: false
    Max angular momentum: 3

  Minimum eigenvalue in the overlap matrix is 4.0872862347E-03.
  Using Symmetric Orthogonalization.
  SCF Guess: Core (One-Electron) Hamiltonian.

  ==> Iterations <==

                           Total Energy        Delta E     RMS |[F,P]|

   @DF-RHF iter   1:  -182.05624930852909   -1.82056e+02   8.10075e-02 
   @DF-RHF iter   2:  -140.09268118718248    4.19636e+01   6.53641e-02 DIIS
   @DF-RHF iter   3:  -192.02050229145576   -5.19278e+01   5.96945e-02 DIIS
   @DF-RHF iter   4:  -216.79843170472239   -2.47779e+01   4.48249e-02 DIIS
   @DF-RHF iter   5:  -231.77074536847059   -1.49723e+01   8.98844e-03 DIIS
   @DF-RHF iter   6:  -232.08799907231256   -3.17254e-01   3.56861e-03 DIIS
   @DF-RHF iter   7:  -232.13044367031475   -4.24446e-02   1.22254e-03 DIIS
   @DF-RHF iter   8:  -232.13740837979239   -6.96471e-03   5.65246e-04 DIIS
   @DF-RHF iter   9:  -232.13903286369325   -1.62448e-03   1.52413e-04 DIIS
   @DF-RHF iter  10:  -232.13920469668798   -1.71833e-04   3.27454e-05 DIIS
   @DF-RHF iter  11:  -232.13921632017545   -1.16235e-05   8.78543e-06 DIIS
   @DF-RHF iter  12:  -232.13921714388167   -8.23706e-07   1.94193e-06 DIIS
   @DF-RHF iter  13:  -232.13921717445990   -3.05782e-08   4.80209e-07 DIIS

  ==> Post-Iterations <==

    Orbital Energies (a.u.)
    -----------------------

    Doubly Occupied:                                                      

       1A    -20.553311     2A    -11.266299     3A    -11.263941  
       4A    -11.214253     5A    -11.212933     6A     -1.378338  
       7A     -1.057276     8A     -0.955303     9A     -0.877302  
      10A     -0.809149    11A     -0.674753    12A     -0.653960  
      13A     -0.630309    14A     -0.607632    15A     -0.565406  
      16A     -0.541439    17A     -0.502797    18A     -0.489012  
      19A     -0.478099    20A     -0.461554    21A     -0.413542  

    Virtual:                                                              

      22A      0.233819    23A      0.247625    24A      0.291867  
      25A      0.297757    26A      0.306682    27A      0.324797  
      28A      0.330843    29A      0.333553    30A      0.351140  
      31A      0.356761    32A      0.367132    33A      0.414705  
      34A      0.438151    35A      0.475656    36A      0.713597  
      37A      0.728359    38A      0.747551    39A      0.775143  
      40A      0.778818    41A      0.821697    42A      0.826556  
      43A      0.861163    44A      0.931253    45A      0.975761  
      46A      1.023020    47A      1.039968    48A      1.112319  
      49A      1.133061    50A      1.149578    51A      1.153929  
      52A      1.176644    53A      1.185203    54A      1.193640  
      55A      1.220444    56A      1.231648    57A      1.241341  
      58A      1.258596    59A      1.324258    60A      1.426236  
      61A      1.437861    62A      1.620979    63A      1.677311  
      64A      1.690748    65A      1.703831    66A      1.772487  
      67A      1.782984    68A      1.886092    69A      2.034167  
      70A      2.141643    71A      2.171739    72A      2.275584  
      73A      2.287069    74A      2.300148    75A      2.349923  
      76A      2.435617    77A      2.450188    78A      2.480060  
      79A      2.551379    80A      2.565470    81A      2.601060  
      82A      2.683942    83A      2.696558    84A      2.751295  
      85A      2.876031    86A      2.897673    87A      2.925812  
      88A      3.040252    89A      3.225593    90A      3.359760  
      91A      4.401532    92A      4.596396    93A      4.670989  
      94A      4.747318    95A      4.927031  

    Final Occupation by Irrep:
              A 
    DOCC [    21 ]

  Energy converged.

  @DF-RHF Final Energy:  -232.13921717445990

   => Energetics <=

    Nuclear Repulsion Energy =            189.7326728346714901
    One-Electron Energy =                -690.5305694377732380
    Two-Electron Energy =                 268.6586794286429267
    DFT Exchange-Correlation Energy =       0.0000000000000000
    Empirical Dispersion Energy =           0.0000000000000000
    PCM Polarization Energy =               0.0000000000000000
    EFP Energy =                            0.0000000000000000
    Total Energy =                       -232.1392171744588495

    Alert: EFP and PCM quantities not currently incorporated into SCF psivars.

Properties will be evaluated at   0.000000,   0.000000,   0.000000 Bohr
  ==> Properties <==


Properties computed using the SCF density matrix

  Nuclear Dipole Moment: (a.u.)
     X:     2.4958      Y:    -2.2954      Z:     0.5356

  Electronic Dipole Moment: (a.u.)
     X:    -2.5135      Y:     1.7992      Z:    -0.4573

  Dipole Moment: (a.u.)
     X:    -0.0177      Y:    -0.4961      Z:     0.0783     Total:     0.5026

  Dipole Moment: (Debye)
     X:    -0.0450      Y:    -1.2610      Z:     0.1991     Total:     1.2774


  Saving occupied orbitals to File 180.

*** tstop() called on cx1-3-16-3.cx1.hpc.ic.ac.uk at Tue Jul  5 16:34:14 2016
Module time:
	user time   =       6.46 seconds =       0.11 minutes
	system time =       0.05 seconds =       0.00 minutes
	total time  =          6 seconds =       0.10 minutes
Total time:
	user time   =       6.46 seconds =       0.11 minutes
	system time =       0.05 seconds =       0.00 minutes
	total time  =          6 seconds =       0.10 minutes


Properties will be evaluated at   0.000000,   0.000000,   0.000000 Bohr

Properties computed using the  density matrix

  Nuclear Dipole Moment: (a.u.)
     X:     2.4958      Y:    -2.2954      Z:     0.5356

  Electronic Dipole Moment: (a.u.)
     X:    -2.5135      Y:     1.7992      Z:    -0.4573

  Dipole Moment: (a.u.)
     X:    -0.0177      Y:    -0.4961      Z:     0.0783     Total:     0.5026

  Dipole Moment: (Debye)
     X:    -0.0450      Y:    -1.2610      Z:     0.1991     Total:     1.2774

  Quadrupole Moment: (Debye Ang)
    XX:   -30.4194     YY:   -34.1472     ZZ:   -33.2175
    XY:     1.7888     XZ:    -0.1057     YZ:     0.2971

  Traceless Quadrupole Moment: (Debye Ang)
    XX:     2.1753     YY:    -1.5525     ZZ:    -0.6228
    XY:     1.7888     XZ:    -0.1057     YZ:     0.2971

  Mulliken Charges: (a.u.)
   Center  Symbol    Alpha    Beta     Spin     Total
       1     H     0.41244  0.41244  0.00000  0.17512
       2     C     3.07910  3.07910  0.00000 -0.15821
       3     O     4.30589  4.30589  0.00000 -0.61179
       4     H     0.42949  0.42949  0.00000  0.14102
       5     H     0.43110  0.43110  0.00000  0.13780
       6     C     2.98163  2.98163  0.00000  0.03674
       7     C     3.15986  3.15986  0.00000 -0.31972
       8     H     0.43364  0.43364  0.00000  0.13272
       9     H     0.43316  0.43316  0.00000  0.13369
      10     C     3.24790  3.24790  0.00000 -0.49581
      11     H     0.41431  0.41431  0.00000  0.17137
      12     H     0.41436  0.41436  0.00000  0.17128
      13     H     0.42081  0.42081  0.00000  0.15837
      14     H     0.41541  0.41541  0.00000  0.16919
      15     H     0.42089  0.42089  0.00000  0.15821

   Total alpha = 21.00000, Total beta = 21.00000, Total charge = -0.00000


*** PSI4 exiting successfully. Buy a developer a beer!
