    -----------------------------------------------------------------------
          Psi4: An Open-Source Ab Initio Electronic Structure Package
                              Psi4 (no tag) Driver

                          Git: Rev {detached?}  

    J. M. Turney, A. C. Simmonett, R. M. Parrish, E. G. Hohenstein,
    F. A. Evangelista, J. T. Fermann, B. J. Mintz, L. A. Burns, J. J. Wilke,
    M. L. Abrams, N. J. Russ, M. L. Leininger, C. L. Janssen, E. T. Seidl,
    W. D. Allen, H. F. Schaefer, R. A. King, E. F. Valeev, C. D. Sherrill,
    and T. D. Crawford, WIREs Comput. Mol. Sci. 2, 556-565 (2012)
    (doi: 10.1002/wcms.93)

                         Additional Contributions by
    A. E. DePrince, M. Saitow, U. Bozkaya, A. Yu. Sokolov
    -----------------------------------------------------------------------


    Psi4 started on: Tue Jul  5 17:10:51 2016

    Process ID:   8220
    PSI4DATADIR: /export131/home/mjharvey/miniconda3/share
    Memory level set to 256.000 MB

  ==> Input File <==

--------------------------------------------------------------------------
set {
	reference rhf
	basis 6-31G*
}


set_num_threads( 1 )
memory 2 gb

molecule MOL {
0 1

H	 2.451652	 -2.178703	 0.543297
O	 2.773837	 -1.297590	 0.410870
C	 1.759943	 -0.431505	 0.213148
C	 1.952163	 0.882401	 0.628652
C	 0.567149	 -0.804328	 -0.375391
H	 2.888055	 1.147335	 1.083376
C	 0.951657	 1.815915	 0.453711
H	 0.391996	 -1.809460	 -0.704871
C	 -0.416209	 0.158540	 -0.535735
H	 1.108530	 2.828069	 0.777428
C	 -0.256085	 1.465996	 -0.135151
N	 -1.676131	 -0.241146	 -1.158900
H	 -1.041542	 2.178856	 -0.277607
O	 -1.727160	 -1.323410	 -1.661029
O	 -2.579907	 0.536419	 -1.129829

	symmetry c1
}
set optking {
	frozen_dihedral = ("
		11 9 12 14
	")
}

ee = energy('scf')
oeprop('DIPOLE', 'QUADRUPOLE', 'MULLIKEN_CHARGES')
f=open( 'psi4out.xyz', 'w' )
f.write( "15  " )
f.write( str(ee) + "\n" )
f.write( MOL.save_string_xyz() )
f.close()
--------------------------------------------------------------------------

  Memory set to   2.000 GiB by Python script.

*** tstart() called on cx1-1-4-3.cx1.hpc.ic.ac.uk
*** at Tue Jul  5 17:10:52 2016


         ---------------------------------------------------------
                                   SCF
            by Justin Turney, Rob Parrish, and Andy Simmonett
                              RHF Reference
                        1 Threads,   2000 MiB Core
         ---------------------------------------------------------

  ==> Geometry <==

    Molecular point group: c1
    Full point group: C1

    Geometry (in Angstrom), charge = 0, multiplicity = 1:

       Center              X                  Y                   Z               Mass       
    ------------   -----------------  -----------------  -----------------  -----------------
           H          2.361362935930    -2.196741189774     0.902021078869     1.007825032070
           O          2.683547935930    -1.315628189774     0.769594078869    15.994914619560
           C          1.669653935930    -0.449543189774     0.571872078869    12.000000000000
           C          1.861873935930     0.864362810226     0.987376078869    12.000000000000
           C          0.476859935930    -0.822366189774    -0.016666921131    12.000000000000
           H          2.797765935930     1.129296810226     1.442100078869     1.007825032070
           C          0.861367935930     1.797876810226     0.812435078869    12.000000000000
           H          0.301706935930    -1.827498189774    -0.346146921131     1.007825032070
           C         -0.506498064070     0.140501810226    -0.177010921131    12.000000000000
           H          1.018240935930     2.810030810226     1.136152078869     1.007825032070
           C         -0.346374064070     1.447957810226     0.223573078869    12.000000000000
           N         -1.766420064070    -0.259184189774    -0.800175921131    14.003074004780
           H         -1.131831064070     2.160817810226     0.081117078869     1.007825032070
           O         -1.817449064070    -1.341448189774    -1.302304921131    15.994914619560
           O         -2.670196064070     0.518380810226    -0.771104921131    15.994914619560

  Running in c1 symmetry.

  Rotational constants: A =      0.09342  B =      0.03337  C =      0.02467 [cm^-1]
  Rotational constants: A =   2800.66192  B =   1000.55173  C =    739.64038 [MHz]
  Nuclear repulsion =  503.375636883897982

  Charge       = 0
  Multiplicity = 1
  Electrons    = 72
  Nalpha       = 36
  Nbeta        = 36

  ==> Algorithm <==

  SCF Algorithm Type is DF.
  DIIS enabled.
  MOM disabled.
  Fractional occupation disabled.
  Guess Type is CORE.
  Energy threshold   = 1.00e-06
  Density threshold  = 1.00e-06
  Integral threshold = 0.00e+00

  ==> Primary Basis <==

  Basis Set: 6-31G*
    Number of shells: 70
    Number of basis function: 160
    Number of Cartesian functions: 160
    Spherical Harmonics?: false
    Max angular momentum: 2

  ==> Pre-Iterations <==

   -------------------------------------------------------
    Irrep   Nso     Nmo     Nalpha   Nbeta   Ndocc  Nsocc
   -------------------------------------------------------
     A        160     160       0       0       0       0
   -------------------------------------------------------
    Total     160     160      36      36      36       0
   -------------------------------------------------------

 OEINTS: Overlap, kinetic, potential, dipole, and quadrupole integrals
         stored in file 35.

  ==> Integral Setup <==

  ==> DFJK: Density-Fitted J/K Matrices <==

    J tasked:                  Yes
    K tasked:                  Yes
    wK tasked:                  No
    OpenMP threads:              1
    Integrals threads:           1
    Memory (MB):              1430
    Algorithm:                Core
    Integral Cache:           NONE
    Schwarz Cutoff:          1E-12
    Fitting Condition:       1E-12

   => Auxiliary Basis Set <=

  Basis Set: 
    Number of shells: 285
    Number of basis function: 935
    Number of Cartesian functions: 935
    Spherical Harmonics?: false
    Max angular momentum: 3

  Minimum eigenvalue in the overlap matrix is 4.1729633909E-04.
  Using Symmetric Orthogonalization.
  SCF Guess: Core (One-Electron) Hamiltonian.

  ==> Iterations <==

                           Total Energy        Delta E     RMS |[F,P]|

   @DF-RHF iter   1:  -421.63379770746201   -4.21634e+02   6.02602e-02 
   @DF-RHF iter   2:  -310.72284886657644    1.10911e+02   5.76815e-02 DIIS
   @DF-RHF iter   3:  -329.10061701155598   -1.83778e+01   7.11186e-02 DIIS
   @DF-RHF iter   4:  -495.93582381161298   -1.66835e+02   2.34594e-02 DIIS
   @DF-RHF iter   5:  -497.09026635670148   -1.15444e+00   2.51015e-02 DIIS
   @DF-RHF iter   6:  -508.21089494060345   -1.11206e+01   7.76944e-03 DIIS
   @DF-RHF iter   7:  -508.87511021999831   -6.64215e-01   3.10664e-03 DIIS
   @DF-RHF iter   8:  -508.98338935679044   -1.08279e-01   1.47962e-03 DIIS
   @DF-RHF iter   9:  -509.02191529357276   -3.85259e-02   5.67377e-04 DIIS
   @DF-RHF iter  10:  -509.02564335988416   -3.72807e-03   1.47443e-04 DIIS
   @DF-RHF iter  11:  -509.02610195372120   -4.58594e-04   7.02469e-05 DIIS
   @DF-RHF iter  12:  -509.02622009863603   -1.18145e-04   3.59334e-05 DIIS
   @DF-RHF iter  13:  -509.02625427861710   -3.41800e-05   1.42346e-05 DIIS
   @DF-RHF iter  14:  -509.02626351227411   -9.23366e-06   5.17389e-06 DIIS
   @DF-RHF iter  15:  -509.02626513390089   -1.62163e-06   2.45934e-06 DIIS
   @DF-RHF iter  16:  -509.02626552631511   -3.92414e-07   9.64842e-07 DIIS

  ==> Post-Iterations <==

    Orbital Energies (a.u.)
    -----------------------

    Doubly Occupied:                                                      

       1A    -20.612360     2A    -20.605034     3A    -20.604414  
       4A    -15.859198     5A    -11.328298     6A    -11.310889  
       7A    -11.267476     8A    -11.266549     9A    -11.264854  
      10A    -11.260988    11A     -1.638100    12A     -1.434121  
      13A     -1.421300    14A     -1.200489    15A     -1.094724  
      16A     -1.046328    17A     -0.965529    18A     -0.877186  
      19A     -0.828846    20A     -0.791209    21A     -0.750221  
      22A     -0.736686    23A     -0.723606    24A     -0.708216  
      25A     -0.673876    26A     -0.636515    27A     -0.624630  
      28A     -0.581301    29A     -0.558058    30A     -0.542575  
      31A     -0.514654    32A     -0.491310    33A     -0.489972  
      34A     -0.454523    35A     -0.376950    36A     -0.345985  

    Virtual:                                                              

      37A      0.058251    38A      0.124459    39A      0.179948  
      40A      0.208451    41A      0.227775    42A      0.291508  
      43A      0.296779    44A      0.323532    45A      0.358098  
      46A      0.382875    47A      0.427113    48A      0.440633  
      49A      0.451375    50A      0.519318    51A      0.535820  
      52A      0.548863    53A      0.607522    54A      0.678036  
      55A      0.694472    56A      0.709102    57A      0.715099  
      58A      0.751759    59A      0.786159    60A      0.797697  
      61A      0.800668    62A      0.813547    63A      0.831062  
      64A      0.870173    65A      0.877402    66A      0.883536  
      67A      0.891116    68A      0.946545    69A      0.978498  
      70A      0.990583    71A      1.000518    72A      1.030760  
      73A      1.043901    74A      1.073875    75A      1.086142  
      76A      1.090726    77A      1.135747    78A      1.144029  
      79A      1.165471    80A      1.171556    81A      1.204536  
      82A      1.221935    83A      1.242902    84A      1.261442  
      85A      1.269176    86A      1.284958    87A      1.299673  
      88A      1.334920    89A      1.391702    90A      1.401261  
      91A      1.440888    92A      1.452321    93A      1.473750  
      94A      1.514831    95A      1.553371    96A      1.591282  
      97A      1.623128    98A      1.653137    99A      1.656093  
     100A      1.697508   101A      1.716015   102A      1.732310  
     103A      1.736867   104A      1.748476   105A      1.914094  
     106A      1.969701   107A      2.009826   108A      2.017963  
     109A      2.053987   110A      2.075848   111A      2.100103  
     112A      2.106324   113A      2.113749   114A      2.170988  
     115A      2.217556   116A      2.230166   117A      2.233841  
     118A      2.260685   119A      2.270343   120A      2.290659  
     121A      2.370070   122A      2.391711   123A      2.435049  
     124A      2.459029   125A      2.471879   126A      2.474536  
     127A      2.540466   128A      2.558671   129A      2.605111  
     130A      2.615046   131A      2.730259   132A      2.755194  
     133A      2.821897   134A      2.837944   135A      2.901242  
     136A      2.927356   137A      2.963804   138A      2.977478  
     139A      3.006904   140A      3.090748   141A      3.103113  
     142A      3.116228   143A      3.161567   144A      3.252947  
     145A      3.284840   146A      3.299708   147A      3.408674  
     148A      3.498458   149A      3.605324   150A      3.835400  
     151A      4.164493   152A      4.277435   153A      4.362235  
     154A      4.434596   155A      4.503587   156A      4.533852  
     157A      4.610211   158A      4.757887   159A      4.870190  
     160A      5.159382  

    Final Occupation by Irrep:
              A 
    DOCC [    36 ]

  Energy converged.

  @DF-RHF Final Energy:  -509.02626552631511

   => Energetics <=

    Nuclear Repulsion Energy =            503.3756368838979824
    One-Electron Energy =               -1693.0303526875045463
    Two-Electron Energy =                 680.6284502772922451
    DFT Exchange-Correlation Energy =       0.0000000000000000
    Empirical Dispersion Energy =           0.0000000000000000
    PCM Polarization Energy =               0.0000000000000000
    EFP Energy =                            0.0000000000000000
    Total Energy =                       -509.0262655263142051

    Alert: EFP and PCM quantities not currently incorporated into SCF psivars.

Properties will be evaluated at   0.000000,   0.000000,   0.000000 Bohr
  ==> Properties <==


Properties computed using the SCF density matrix

  Nuclear Dipole Moment: (a.u.)
     X:     5.0093      Y:     1.9366      Z:     3.0103

  Electronic Dipole Moment: (a.u.)
     X:    -3.7765      Y:    -1.7536      Z:    -2.0952

  Dipole Moment: (a.u.)
     X:     1.2328      Y:     0.1829      Z:     0.9151     Total:     1.5462

  Dipole Moment: (Debye)
     X:     3.1335      Y:     0.4650      Z:     2.3259     Total:     3.9300


  Saving occupied orbitals to File 180.

*** tstop() called on cx1-1-4-3.cx1.hpc.ic.ac.uk at Tue Jul  5 17:11:14 2016
Module time:
	user time   =      21.37 seconds =       0.36 minutes
	system time =       0.25 seconds =       0.00 minutes
	total time  =         22 seconds =       0.37 minutes
Total time:
	user time   =      21.37 seconds =       0.36 minutes
	system time =       0.25 seconds =       0.00 minutes
	total time  =         22 seconds =       0.37 minutes


Properties will be evaluated at   0.000000,   0.000000,   0.000000 Bohr

Properties computed using the  density matrix

  Nuclear Dipole Moment: (a.u.)
     X:     5.0093      Y:     1.9366      Z:     3.0103

  Electronic Dipole Moment: (a.u.)
     X:    -3.7765      Y:    -1.7536      Z:    -2.0952

  Dipole Moment: (a.u.)
     X:     1.2328      Y:     0.1829      Z:     0.9151     Total:     1.5462

  Dipole Moment: (Debye)
     X:     3.1335      Y:     0.4650      Z:     2.3259     Total:     3.9300

  Quadrupole Moment: (Debye Ang)
    XX:   -68.4399     YY:   -47.4780     ZZ:   -58.6371
    XY:    -2.0162     XZ:    -2.2782     YZ:    -1.4449

  Traceless Quadrupole Moment: (Debye Ang)
    XX:   -10.2549     YY:    10.7070     ZZ:    -0.4521
    XY:    -2.0162     XZ:    -2.2782     YZ:    -1.4449

  Mulliken Charges: (a.u.)
   Center  Symbol    Alpha    Beta     Spin     Total
       1     H     0.26769  0.26769  0.00000  0.46463
       2     O     4.37726  4.37726  0.00000 -0.75453
       3     C     2.79810  2.79810  0.00000  0.40379
       4     C     3.10694  3.10694  0.00000 -0.21387
       5     C     3.13124  3.13124  0.00000 -0.26248
       6     H     0.38107  0.38107  0.00000  0.23786
       7     C     3.10191  3.10191  0.00000 -0.20382
       8     H     0.36669  0.36669  0.00000  0.26661
       9     C     2.91307  2.91307  0.00000  0.17385
      10     H     0.38677  0.38677  0.00000  0.22646
      11     C     3.09610  3.09610  0.00000 -0.19219
      12     N     3.24232  3.24232  0.00000  0.51535
      13     H     0.36548  0.36548  0.00000  0.26905
      14     O     4.23415  4.23415  0.00000 -0.46830
      15     O     4.23121  4.23121  0.00000 -0.46242

   Total alpha = 36.00000, Total beta = 36.00000, Total charge = -0.00000


*** PSI4 exiting successfully. Buy a developer a beer!
