    -----------------------------------------------------------------------
          Psi4: An Open-Source Ab Initio Electronic Structure Package
                              Psi4 (no tag) Driver

                          Git: Rev {detached?}  

    J. M. Turney, A. C. Simmonett, R. M. Parrish, E. G. Hohenstein,
    F. A. Evangelista, J. T. Fermann, B. J. Mintz, L. A. Burns, J. J. Wilke,
    M. L. Abrams, N. J. Russ, M. L. Leininger, C. L. Janssen, E. T. Seidl,
    W. D. Allen, H. F. Schaefer, R. A. King, E. F. Valeev, C. D. Sherrill,
    and T. D. Crawford, WIREs Comput. Mol. Sci. 2, 556-565 (2012)
    (doi: 10.1002/wcms.93)

                         Additional Contributions by
    A. E. DePrince, M. Saitow, U. Bozkaya, A. Yu. Sokolov
    -----------------------------------------------------------------------


    Psi4 started on: Tue Jul  5 17:08:53 2016

    Process ID:  19015
    PSI4DATADIR: /export131/home/mjharvey/miniconda3/share
    Memory level set to 256.000 MB

  ==> Input File <==

--------------------------------------------------------------------------
set {
	reference rhf
	basis 6-31G*
}


set_num_threads( 1 )
memory 2 gb

molecule MOL {
0 1

O	 0.628015	 0.757649	 -1.949235
C	 0.140502	 1.681556	 -1.381988
C	 -0.333857	 1.681413	 0.050798
O	 -0.054281	 2.863688	 -1.952602
C	 0.668036	 1.063254	 1.021072
H	 -0.557862	 2.710394	 0.318703
H	 -1.284321	 1.155460	 0.078111
C	 2.055176	 1.697420	 0.906871
H	 0.734940	 -0.004241	 0.835373
H	 0.296975	 1.170012	 2.035675
C	 2.798419	 1.265715	 -0.356546
H	 1.961162	 2.781458	 0.916902
H	 2.647839	 1.435053	 1.780933
H	 2.247135	 1.544944	 -1.249727
H	 3.778245	 1.729391	 -0.413313
H	 2.939260	 0.189012	 -0.379219
C	 1.065166	 3.726192	 -2.042424
H	 1.444631	 3.960080	 -1.058153
H	 0.709774	 4.621320	 -2.528624
H	 1.850932	 3.269393	 -2.626729

	symmetry c1
}
set optking {
	frozen_dihedral = ("
		9 5 8 12,
		1 2 3 6,
		9 5 3 6
	")
}

ee = energy('scf')
oeprop('DIPOLE', 'QUADRUPOLE', 'MULLIKEN_CHARGES')
f=open( 'psi4out.xyz', 'w' )
f.write( "20  " )
f.write( str(ee) + "\n" )
f.write( MOL.save_string_xyz() )
f.close()
--------------------------------------------------------------------------

  Memory set to   2.000 GiB by Python script.

*** tstart() called on cx1-3-16-2.cx1.hpc.ic.ac.uk
*** at Tue Jul  5 17:08:53 2016


         ---------------------------------------------------------
                                   SCF
            by Justin Turney, Rob Parrish, and Andy Simmonett
                              RHF Reference
                        1 Threads,   2000 MiB Core
         ---------------------------------------------------------

  ==> Geometry <==

    Molecular point group: c1
    Full point group: C1

    Geometry (in Angstrom), charge = 0, multiplicity = 1:

       Center              X                  Y                   Z               Mass       
    ------------   -----------------  -----------------  -----------------  -----------------
           O         -0.257535941298    -1.103628660711    -1.205425839063    15.994914619560
           C         -0.745048941298    -0.179721660711    -0.638178839063    12.000000000000
           C         -1.219407941298    -0.179864660711     0.794607160937    12.000000000000
           O         -0.939831941298     1.002410339289    -1.208792839063    15.994914619560
           C         -0.217514941298    -0.798023660711     1.764881160937    12.000000000000
           H         -1.443412941298     0.849116339289     1.062512160937     1.007825032070
           H         -2.169871941298    -0.705817660711     0.821920160937     1.007825032070
           C          1.169625058702    -0.163857660711     1.650680160937    12.000000000000
           H         -0.150610941298    -1.865518660711     1.579182160937     1.007825032070
           H         -0.588575941298    -0.691265660711     2.779484160937     1.007825032070
           C          1.912868058702    -0.595562660711     0.387263160937    12.000000000000
           H          1.075611058702     0.920180339289     1.660711160937     1.007825032070
           H          1.762288058702    -0.426224660711     2.524742160937     1.007825032070
           H          1.361584058702    -0.316333660711    -0.505917839063     1.007825032070
           H          2.892694058702    -0.131886660711     0.330496160937     1.007825032070
           H          2.053709058702    -1.672265660711     0.364590160937     1.007825032070
           C          0.179615058702     1.864914339289    -1.298614839063    12.000000000000
           H          0.559080058702     2.098802339289    -0.314343839063     1.007825032070
           H         -0.175776941298     2.760042339289    -1.784814839063     1.007825032070
           H          0.965381058702     1.408115339289    -1.882919839063     1.007825032070

  Running in c1 symmetry.

  Rotational constants: A =      0.09119  B =      0.05422  C =      0.04846 [cm^-1]
  Rotational constants: A =   2733.76874  B =   1625.53445  C =   1452.84409 [MHz]
  Nuclear repulsion =  414.759119597199117

  Charge       = 0
  Multiplicity = 1
  Electrons    = 64
  Nalpha       = 32
  Nbeta        = 32

  ==> Algorithm <==

  SCF Algorithm Type is DF.
  DIIS enabled.
  MOM disabled.
  Fractional occupation disabled.
  Guess Type is CORE.
  Energy threshold   = 1.00e-06
  Density threshold  = 1.00e-06
  Integral threshold = 0.00e+00

  ==> Primary Basis <==

  Basis Set: 6-31G*
    Number of shells: 72
    Number of basis function: 144
    Number of Cartesian functions: 144
    Spherical Harmonics?: false
    Max angular momentum: 2

  ==> Pre-Iterations <==

   -------------------------------------------------------
    Irrep   Nso     Nmo     Nalpha   Nbeta   Ndocc  Nsocc
   -------------------------------------------------------
     A        144     144       0       0       0       0
   -------------------------------------------------------
    Total     144     144      32      32      32       0
   -------------------------------------------------------

 OEINTS: Overlap, kinetic, potential, dipole, and quadrupole integrals
         stored in file 35.

  ==> Integral Setup <==

  ==> DFJK: Density-Fitted J/K Matrices <==

    J tasked:                  Yes
    K tasked:                  Yes
    wK tasked:                  No
    OpenMP threads:              1
    Integrals threads:           1
    Memory (MB):              1430
    Algorithm:                Core
    Integral Cache:           NONE
    Schwarz Cutoff:          1E-12
    Fitting Condition:       1E-12

   => Auxiliary Basis Set <=

  Basis Set: 
    Number of shells: 300
    Number of basis function: 948
    Number of Cartesian functions: 948
    Spherical Harmonics?: false
    Max angular momentum: 3

  Minimum eigenvalue in the overlap matrix is 2.9832735680E-03.
  Using Symmetric Orthogonalization.
  SCF Guess: Core (One-Electron) Hamiltonian.

  ==> Iterations <==

                           Total Energy        Delta E     RMS |[F,P]|

   @DF-RHF iter   1:  -265.12469084743162   -2.65125e+02   7.59200e-02 
   @DF-RHF iter   2:  -237.96018338153698    2.71645e+01   6.32358e-02 DIIS
   @DF-RHF iter   3:  -329.37140762631822   -9.14112e+01   4.41454e-02 DIIS
   @DF-RHF iter   4:  -343.16585809568920   -1.37945e+01   4.60474e-02 DIIS
   @DF-RHF iter   5:  -380.09835230547895   -3.69325e+01   1.55332e-02 DIIS
   @DF-RHF iter   6:  -383.41123566090488   -3.31288e+00   6.99817e-03 DIIS
   @DF-RHF iter   7:  -383.87439775447632   -4.63162e-01   1.08231e-03 DIIS
   @DF-RHF iter   8:  -383.89000993150847   -1.56122e-02   4.82280e-04 DIIS
   @DF-RHF iter   9:  -383.89237506355238   -2.36513e-03   2.17730e-04 DIIS
   @DF-RHF iter  10:  -383.89292745379834   -5.52390e-04   1.00645e-04 DIIS
   @DF-RHF iter  11:  -383.89304729639224   -1.19843e-04   4.91507e-05 DIIS
   @DF-RHF iter  12:  -383.89307995519215   -3.26588e-05   1.56960e-05 DIIS
   @DF-RHF iter  13:  -383.89308354964027   -3.59445e-06   4.48953e-06 DIIS
   @DF-RHF iter  14:  -383.89308399377870   -4.44138e-07   1.08411e-06 DIIS
   @DF-RHF iter  15:  -383.89308404375964   -4.99809e-08   4.95975e-07 DIIS

  ==> Post-Iterations <==

    Orbital Energies (a.u.)
    -----------------------

    Doubly Occupied:                                                      

       1A    -20.588697     2A    -20.552190     3A    -11.376329  
       4A    -11.294754     5A    -11.235510     6A    -11.227513  
       7A    -11.222209     8A    -11.197985     9A     -1.468024  
      10A     -1.370394    11A     -1.093942    12A     -1.018746  
      13A     -0.972077    14A     -0.901311    15A     -0.809446  
      16A     -0.767897    17A     -0.699583    18A     -0.690617  
      19A     -0.676043    20A     -0.628419    21A     -0.626673  
      22A     -0.594802    23A     -0.582354    24A     -0.553927  
      25A     -0.550431    26A     -0.518683    27A     -0.507471  
      28A     -0.482214    29A     -0.474540    30A     -0.458388  
      31A     -0.440383    32A     -0.429086  

    Virtual:                                                              

      33A      0.162417    34A      0.220767    35A      0.254389  
      36A      0.267015    37A      0.277049    38A      0.291853  
      39A      0.302386    40A      0.309848    41A      0.330215  
      42A      0.333102    43A      0.338024    44A      0.352926  
      45A      0.369350    46A      0.390720    47A      0.416513  
      48A      0.431155    49A      0.463583    50A      0.468893  
      51A      0.553589    52A      0.589472    53A      0.686492  
      54A      0.721583    55A      0.725538    56A      0.745127  
      57A      0.767933    58A      0.774312    59A      0.807723  
      60A      0.837652    61A      0.859692    62A      0.887745  
      63A      0.919662    64A      0.930951    65A      0.962075  
      66A      0.981406    67A      0.992260    68A      0.995998  
      69A      1.061111    70A      1.091293    71A      1.122614  
      72A      1.127311    73A      1.140998    74A      1.145470  
      75A      1.170375    76A      1.173260    77A      1.182904  
      78A      1.211617    79A      1.229795    80A      1.233913  
      81A      1.244691    82A      1.251948    83A      1.272566  
      84A      1.298009    85A      1.319846    86A      1.336359  
      87A      1.394255    88A      1.426957    89A      1.484924  
      90A      1.524031    91A      1.526357    92A      1.645058  
      93A      1.667639    94A      1.708021    95A      1.728724  
      96A      1.761683    97A      1.811757    98A      1.869229  
      99A      1.895223   100A      1.967560   101A      2.018769  
     102A      2.052643   103A      2.099694   104A      2.125060  
     105A      2.145637   106A      2.163301   107A      2.211357  
     108A      2.226789   109A      2.257253   110A      2.279943  
     111A      2.307345   112A      2.359451   113A      2.394531  
     114A      2.411668   115A      2.434216   116A      2.458786  
     117A      2.485744   118A      2.578833   119A      2.588924  
     120A      2.619259   121A      2.663492   122A      2.672782  
     123A      2.691854   124A      2.748606   125A      2.790812  
     126A      2.815635   127A      2.870771   128A      2.892038  
     129A      2.978526   130A      2.987455   131A      3.083538  
     132A      3.199399   133A      3.226213   134A      3.322859  
     135A      3.396957   136A      3.500652   137A      4.435903  
     138A      4.548301   139A      4.646413   140A      4.679861  
     141A      4.773266   142A      4.823225   143A      4.947538  
     144A      5.023515  

    Final Occupation by Irrep:
              A 
    DOCC [    32 ]

  Energy converged.

  @DF-RHF Final Energy:  -383.89308404375964

   => Energetics <=

    Nuclear Repulsion Energy =            414.7591195971991169
    One-Electron Energy =               -1345.2832544843854521
    Two-Electron Energy =                 546.6310508434277153
    DFT Exchange-Correlation Energy =       0.0000000000000000
    Empirical Dispersion Energy =           0.0000000000000000
    PCM Polarization Energy =               0.0000000000000000
    EFP Energy =                            0.0000000000000000
    Total Energy =                       -383.8930840437586767

    Alert: EFP and PCM quantities not currently incorporated into SCF psivars.

Properties will be evaluated at   0.000000,   0.000000,   0.000000 Bohr
  ==> Properties <==


Properties computed using the SCF density matrix

  Nuclear Dipole Moment: (a.u.)
     X:     5.7523      Y:     2.0872      Z:     6.2091

  Electronic Dipole Moment: (a.u.)
     X:    -5.6511      Y:    -1.1712      Z:    -5.4431

  Dipole Moment: (a.u.)
     X:     0.1011      Y:     0.9160      Z:     0.7661     Total:     1.1984

  Dipole Moment: (Debye)
     X:     0.2571      Y:     2.3282      Z:     1.9471     Total:     3.0460


  Saving occupied orbitals to File 180.

*** tstop() called on cx1-3-16-2.cx1.hpc.ic.ac.uk at Tue Jul  5 17:09:10 2016
Module time:
	user time   =      16.62 seconds =       0.28 minutes
	system time =       0.18 seconds =       0.00 minutes
	total time  =         17 seconds =       0.28 minutes
Total time:
	user time   =      16.62 seconds =       0.28 minutes
	system time =       0.18 seconds =       0.00 minutes
	total time  =         17 seconds =       0.28 minutes


Properties will be evaluated at   0.000000,   0.000000,   0.000000 Bohr

Properties computed using the  density matrix

  Nuclear Dipole Moment: (a.u.)
     X:     5.7523      Y:     2.0872      Z:     6.2091

  Electronic Dipole Moment: (a.u.)
     X:    -5.6511      Y:    -1.1712      Z:    -5.4431

  Dipole Moment: (a.u.)
     X:     0.1011      Y:     0.9160      Z:     0.7661     Total:     1.1984

  Dipole Moment: (Debye)
     X:     0.2571      Y:     2.3282      Z:     1.9471     Total:     3.0460

  Quadrupole Moment: (Debye Ang)
    XX:   -50.0873     YY:   -49.2338     ZZ:   -52.1105
    XY:     2.1434     XZ:    -2.4893     YZ:    -4.4673

  Traceless Quadrupole Moment: (Debye Ang)
    XX:     0.3899     YY:     1.2434     ZZ:    -1.6333
    XY:     2.1434     XZ:    -2.4893     YZ:    -4.4673

  Mulliken Charges: (a.u.)
   Center  Symbol    Alpha    Beta     Spin     Total
       1     O     4.26154  4.26154  0.00000 -0.52308
       2     C     2.61993  2.61993  0.00000  0.76014
       3     C     3.20981  3.20981  0.00000 -0.41962
       4     O     4.30984  4.30984  0.00000 -0.61968
       5     C     3.15562  3.15562  0.00000 -0.31124
       6     H     0.40474  0.40474  0.00000  0.19052
       7     H     0.39572  0.39572  0.00000  0.20856
       8     C     3.16672  3.16672  0.00000 -0.33344
       9     H     0.40820  0.40820  0.00000  0.18361
      10     H     0.41455  0.41455  0.00000  0.17091
      11     C     3.24495  3.24495  0.00000 -0.48990
      12     H     0.42664  0.42664  0.00000  0.14672
      13     H     0.41590  0.41590  0.00000  0.16820
      14     H     0.40432  0.40432  0.00000  0.19136
      15     H     0.42624  0.42624  0.00000  0.14751
      16     H     0.41516  0.41516  0.00000  0.16968
      17     C     3.09875  3.09875  0.00000 -0.19750
      18     H     0.41657  0.41657  0.00000  0.16687
      19     H     0.40005  0.40005  0.00000  0.19991
      20     H     0.40476  0.40476  0.00000  0.19049

   Total alpha = 32.00000, Total beta = 32.00000, Total charge = -0.00000


*** PSI4 exiting successfully. Buy a developer a beer!
