    -----------------------------------------------------------------------
          Psi4: An Open-Source Ab Initio Electronic Structure Package
                              Psi4 (no tag) Driver

                          Git: Rev {detached?}  

    J. M. Turney, A. C. Simmonett, R. M. Parrish, E. G. Hohenstein,
    F. A. Evangelista, J. T. Fermann, B. J. Mintz, L. A. Burns, J. J. Wilke,
    M. L. Abrams, N. J. Russ, M. L. Leininger, C. L. Janssen, E. T. Seidl,
    W. D. Allen, H. F. Schaefer, R. A. King, E. F. Valeev, C. D. Sherrill,
    and T. D. Crawford, WIREs Comput. Mol. Sci. 2, 556-565 (2012)
    (doi: 10.1002/wcms.93)

                         Additional Contributions by
    A. E. DePrince, M. Saitow, U. Bozkaya, A. Yu. Sokolov
    -----------------------------------------------------------------------


    Psi4 started on: Tue Jul  5 16:30:53 2016

    Process ID:   1581
    PSI4DATADIR: /export131/home/mjharvey/miniconda3/share
    Memory level set to 256.000 MB

  ==> Input File <==

--------------------------------------------------------------------------
set {
	reference rhf
	basis 6-31G*
}


set_num_threads( 1 )
memory 2 gb

molecule MOL {
0 1

H	 -1.836216	 1.387520	 -0.000064
C	 -1.301823	 0.443321	 -0.000031
O	 -0.003969	 0.658512	 0.000451
O	 -1.829879	 -0.616434	 -0.000857
C	 0.850537	 -0.484732	 0.000380
C	 0.566290	 -1.263889	 -1.265494
H	 0.648981	 -1.070615	 0.886627
H	 1.878481	 -0.152181	 0.045484
H	 -0.469525	 -1.581869	 -1.297272
H	 1.197719	 -2.145362	 -1.304687
H	 0.765879	 -0.659116	 -2.142593

	symmetry c1
}
set optking {
	frozen_dihedral = ("
		5 3 2 4
	")
}

ee = energy('scf')
oeprop('DIPOLE', 'QUADRUPOLE', 'MULLIKEN_CHARGES')
f=open( 'psi4out.xyz', 'w' )
f.write( "11  " )
f.write( str(ee) + "\n" )
f.write( MOL.save_string_xyz() )
f.close()
--------------------------------------------------------------------------

  Memory set to   2.000 GiB by Python script.

*** tstart() called on cx1-3-6-1.cx1.hpc.ic.ac.uk
*** at Tue Jul  5 16:30:53 2016


         ---------------------------------------------------------
                                   SCF
            by Justin Turney, Rob Parrish, and Andy Simmonett
                              RHF Reference
                        1 Threads,   2000 MiB Core
         ---------------------------------------------------------

  ==> Geometry <==

    Molecular point group: c1
    Full point group: C1

    Geometry (in Angstrom), charge = 0, multiplicity = 1:

       Center              X                  Y                   Z               Mass       
    ------------   -----------------  -----------------  -----------------  -----------------
           H         -1.488418929521     1.647461389479     0.256978135751     1.007825032070
           C         -0.954025929521     0.703262389479     0.257011135751    12.000000000000
           O          0.343828070479     0.918453389479     0.257493135751    15.994914619560
           O         -1.482081929521    -0.356492610521     0.256185135751    15.994914619560
           C          1.198334070479    -0.224790610521     0.257422135751    12.000000000000
           C          0.914087070479    -1.003947610521    -1.008451864249    12.000000000000
           H          0.996778070479    -0.810673610521     1.143669135751     1.007825032070
           H          2.226278070479     0.107760389479     0.302526135751     1.007825032070
           H         -0.121727929521    -1.321927610521    -1.040229864249     1.007825032070
           H          1.545516070479    -1.885420610521    -1.047644864249     1.007825032070
           H          1.113676070479    -0.399174610521    -1.885550864249     1.007825032070

  Running in c1 symmetry.

  Rotational constants: A =      0.30774  B =      0.15465  C =      0.11797 [cm^-1]
  Rotational constants: A =   9225.67575  B =   4636.40321  C =   3536.59723 [MHz]
  Nuclear repulsion =  185.632270758331344

  Charge       = 0
  Multiplicity = 1
  Electrons    = 40
  Nalpha       = 20
  Nbeta        = 20

  ==> Algorithm <==

  SCF Algorithm Type is DF.
  DIIS enabled.
  MOM disabled.
  Fractional occupation disabled.
  Guess Type is CORE.
  Energy threshold   = 1.00e-06
  Density threshold  = 1.00e-06
  Integral threshold = 0.00e+00

  ==> Primary Basis <==

  Basis Set: 6-31G*
    Number of shells: 42
    Number of basis function: 87
    Number of Cartesian functions: 87
    Spherical Harmonics?: false
    Max angular momentum: 2

  ==> Pre-Iterations <==

   -------------------------------------------------------
    Irrep   Nso     Nmo     Nalpha   Nbeta   Ndocc  Nsocc
   -------------------------------------------------------
     A         87      87       0       0       0       0
   -------------------------------------------------------
    Total      87      87      20      20      20       0
   -------------------------------------------------------

 OEINTS: Overlap, kinetic, potential, dipole, and quadrupole integrals
         stored in file 35.

  ==> Integral Setup <==

  ==> DFJK: Density-Fitted J/K Matrices <==

    J tasked:                  Yes
    K tasked:                  Yes
    wK tasked:                  No
    OpenMP threads:              1
    Integrals threads:           1
    Memory (MB):              1430
    Algorithm:                Core
    Integral Cache:           NONE
    Schwarz Cutoff:          1E-12
    Fitting Condition:       1E-12

   => Auxiliary Basis Set <=

  Basis Set: 
    Number of shells: 174
    Number of basis function: 555
    Number of Cartesian functions: 555
    Spherical Harmonics?: false
    Max angular momentum: 3

  Minimum eigenvalue in the overlap matrix is 4.4810257839E-03.
  Using Symmetric Orthogonalization.
  SCF Guess: Core (One-Electron) Hamiltonian.

  ==> Iterations <==

                           Total Energy        Delta E     RMS |[F,P]|

   @DF-RHF iter   1:  -217.45607458297877   -2.17456e+02   8.41235e-02 
   @DF-RHF iter   2:  -167.75837259349055    4.96977e+01   8.25981e-02 DIIS
   @DF-RHF iter   3:  -243.31109419250419   -7.55527e+01   4.34558e-02 DIIS
   @DF-RHF iter   4:  -239.21314807331100    4.09795e+00   6.26192e-02 DIIS
   @DF-RHF iter   5:  -266.04927679193838   -2.68361e+01   1.48084e-02 DIIS
   @DF-RHF iter   6:  -266.52131281868822   -4.72036e-01   9.75892e-03 DIIS
   @DF-RHF iter   7:  -266.78763067254232   -2.66318e-01   2.56163e-03 DIIS
   @DF-RHF iter   8:  -266.81206284283905   -2.44322e-02   1.31450e-03 DIIS
   @DF-RHF iter   9:  -266.81957369797180   -7.51086e-03   4.20566e-04 DIIS
   @DF-RHF iter  10:  -266.82048151221994   -9.07814e-04   8.79293e-05 DIIS
   @DF-RHF iter  11:  -266.82052381055007   -4.22983e-05   1.86344e-05 DIIS
   @DF-RHF iter  12:  -266.82052668085817   -2.87031e-06   5.59931e-06 DIIS
   @DF-RHF iter  13:  -266.82052700100002   -3.20142e-07   2.45368e-06 DIIS
   @DF-RHF iter  14:  -266.82052705762339   -5.66234e-08   9.14338e-07 DIIS

  ==> Post-Iterations <==

    Orbital Energies (a.u.)
    -----------------------

    Doubly Occupied:                                                      

       1A    -20.613194     2A    -20.557685     3A    -11.381132  
       4A    -11.292374     5A    -11.211581     6A     -1.479160  
       7A     -1.376399     8A     -1.045683     9A     -0.907798  
      10A     -0.801839    11A     -0.741513    12A     -0.688037  
      13A     -0.654737    14A     -0.624208    15A     -0.575729  
      16A     -0.548817    17A     -0.520635    18A     -0.501972  
      19A     -0.457762    20A     -0.447651  

    Virtual:                                                              

      21A      0.189166    22A      0.255355    23A      0.275346  
      24A      0.293113    25A      0.308344    26A      0.317501  
      27A      0.339744    28A      0.372652    29A      0.406293  
      30A      0.463812    31A      0.506681    32A      0.708809  
      33A      0.712597    34A      0.746890    35A      0.761885  
      36A      0.795839    37A      0.872909    38A      0.903770  
      39A      0.922492    40A      0.982366    41A      1.048016  
      42A      1.098027    43A      1.101649    44A      1.121338  
      45A      1.163998    46A      1.182995    47A      1.204240  
      48A      1.261512    49A      1.278515    50A      1.285478  
      51A      1.353863    52A      1.386578    53A      1.404479  
      54A      1.532884    55A      1.613564    56A      1.646412  
      57A      1.706974    58A      1.771702    59A      1.840981  
      60A      1.901861    61A      1.938646    62A      2.057714  
      63A      2.138368    64A      2.157448    65A      2.211746  
      66A      2.219595    67A      2.304512    68A      2.343932  
      69A      2.405784    70A      2.508498    71A      2.583095  
      72A      2.653920    73A      2.682906    74A      2.721944  
      75A      2.754031    76A      2.820927    77A      2.940134  
      78A      3.042913    79A      3.081149    80A      3.281267  
      81A      3.332688    82A      3.472956    83A      4.298270  
      84A      4.410386    85A      4.614357    86A      4.648187  
      87A      4.858704  

    Final Occupation by Irrep:
              A 
    DOCC [    20 ]

  Energy converged.

  @DF-RHF Final Energy:  -266.82052705762339

   => Energetics <=

    Nuclear Repulsion Energy =            185.6322707583313445
    One-Electron Energy =                -732.0498318514365792
    Two-Electron Energy =                 279.5970340354816699
    DFT Exchange-Correlation Energy =       0.0000000000000000
    Empirical Dispersion Energy =           0.0000000000000000
    PCM Polarization Energy =               0.0000000000000000
    EFP Energy =                            0.0000000000000000
    Total Energy =                       -266.8205270576235080

    Alert: EFP and PCM quantities not currently incorporated into SCF psivars.

Properties will be evaluated at   0.000000,   0.000000,   0.000000 Bohr
  ==> Properties <==


Properties computed using the SCF density matrix

  Nuclear Dipole Moment: (a.u.)
     X:     3.9995      Y:    -2.4928      Z:    -2.1258

  Electronic Dipole Moment: (a.u.)
     X:    -3.3670      Y:     2.8178      Z:     2.1080

  Dipole Moment: (a.u.)
     X:     0.6325      Y:     0.3250      Z:    -0.0178     Total:     0.7113

  Dipole Moment: (Debye)
     X:     1.6077      Y:     0.8261      Z:    -0.0453     Total:     1.8080


  Saving occupied orbitals to File 180.

*** tstop() called on cx1-3-6-1.cx1.hpc.ic.ac.uk at Tue Jul  5 16:30:57 2016
Module time:
	user time   =       3.46 seconds =       0.06 minutes
	system time =       0.04 seconds =       0.00 minutes
	total time  =          4 seconds =       0.07 minutes
Total time:
	user time   =       3.46 seconds =       0.06 minutes
	system time =       0.04 seconds =       0.00 minutes
	total time  =          4 seconds =       0.07 minutes


Properties will be evaluated at   0.000000,   0.000000,   0.000000 Bohr

Properties computed using the  density matrix

  Nuclear Dipole Moment: (a.u.)
     X:     3.9995      Y:    -2.4928      Z:    -2.1258

  Electronic Dipole Moment: (a.u.)
     X:    -3.3670      Y:     2.8178      Z:     2.1080

  Dipole Moment: (a.u.)
     X:     0.6325      Y:     0.3250      Z:    -0.0178     Total:     0.7113

  Dipole Moment: (Debye)
     X:     1.6077      Y:     0.8261      Z:    -0.0453     Total:     1.8080

  Quadrupole Moment: (Debye Ang)
    XX:   -30.6741     YY:   -30.0383     ZZ:   -29.5270
    XY:    -4.7364     XZ:     0.6999     YZ:     0.0992

  Traceless Quadrupole Moment: (Debye Ang)
    XX:    -0.5943     YY:     0.0415     ZZ:     0.5528
    XY:    -4.7364     XZ:     0.6999     YZ:     0.0992

  Mulliken Charges: (a.u.)
   Center  Symbol    Alpha    Beta     Spin     Total
       1     H     0.40910  0.40910  0.00000  0.18179
       2     C     2.72606  2.72606  0.00000  0.54789
       3     O     4.29092  4.29092  0.00000 -0.58185
       4     O     4.26519  4.26519  0.00000 -0.53039
       5     C     3.00874  3.00874  0.00000 -0.01748
       6     C     3.26947  3.26947  0.00000 -0.53895
       7     H     0.40759  0.40759  0.00000  0.18483
       8     H     0.40510  0.40510  0.00000  0.18981
       9     H     0.38248  0.38248  0.00000  0.23504
      10     H     0.41933  0.41933  0.00000  0.16133
      11     H     0.41601  0.41601  0.00000  0.16797

   Total alpha = 20.00000, Total beta = 20.00000, Total charge =  0.00000


*** PSI4 exiting successfully. Buy a developer a beer!
