    -----------------------------------------------------------------------
          Psi4: An Open-Source Ab Initio Electronic Structure Package
                              Psi4 (no tag) Driver

                          Git: Rev {detached?}  

    J. M. Turney, A. C. Simmonett, R. M. Parrish, E. G. Hohenstein,
    F. A. Evangelista, J. T. Fermann, B. J. Mintz, L. A. Burns, J. J. Wilke,
    M. L. Abrams, N. J. Russ, M. L. Leininger, C. L. Janssen, E. T. Seidl,
    W. D. Allen, H. F. Schaefer, R. A. King, E. F. Valeev, C. D. Sherrill,
    and T. D. Crawford, WIREs Comput. Mol. Sci. 2, 556-565 (2012)
    (doi: 10.1002/wcms.93)

                         Additional Contributions by
    A. E. DePrince, M. Saitow, U. Bozkaya, A. Yu. Sokolov
    -----------------------------------------------------------------------


    Psi4 started on: Tue Jul  5 16:24:07 2016

    Process ID:  18016
    PSI4DATADIR: /export131/home/mjharvey/miniconda3/share
    Memory level set to 256.000 MB

  ==> Input File <==

--------------------------------------------------------------------------
set {
	reference rhf
	basis 6-31G*
}


set_num_threads( 1 )
memory 2 gb

molecule MOL {
0 1

H	 1.596000	 1.287000	 0.000000
C	 0.933000	 0.414000	 -0.000000
C	 -0.540000	 0.734000	 0.000000
O	 1.389000	 -0.683000	 0.000000
C	 -1.435000	 -0.500000	 -0.000000
H	 -0.736000	 1.364000	 -0.866000
H	 -0.736000	 1.364000	 0.867000
H	 -1.250000	 -1.112000	 -0.875000
H	 -2.481000	 -0.210000	 0.000000
H	 -1.250000	 -1.112000	 0.875000

	symmetry c1
}
ee = optimize('scf')
oeprop('DIPOLE', 'QUADRUPOLE', 'MULLIKEN_CHARGES')
f=open( 'psi4out.xyz', 'w' )
f.write( "10  " )
f.write( str(ee) + "\n" )
f.write( MOL.save_string_xyz() )
f.close()
--------------------------------------------------------------------------

  Memory set to   2.000 GiB by Python script.
gradient() will perform analytic gradient computation.

*** tstart() called on cx1-3-5-2.cx1.hpc.ic.ac.uk
*** at Tue Jul  5 16:24:08 2016


         ---------------------------------------------------------
                                   SCF
            by Justin Turney, Rob Parrish, and Andy Simmonett
                              RHF Reference
                        1 Threads,   2000 MiB Core
         ---------------------------------------------------------

  ==> Geometry <==

    Molecular point group: c1
    Full point group: C1

    Geometry (in Angstrom), charge = 0, multiplicity = 1:

       Center              X                  Y                   Z               Mass       
    ------------   -----------------  -----------------  -----------------  -----------------
           H          1.512992153140     1.313793682706    -0.000017363760     1.007825032070
           C          0.849992153140     0.440793682706    -0.000017363760    12.000000000000
           C         -0.623007846860     0.760793682706    -0.000017363760    12.000000000000
           O          1.305992153140    -0.656206317294    -0.000017363760    15.994914619560
           C         -1.518007846860    -0.473206317294    -0.000017363760    12.000000000000
           H         -0.819007846860     1.390793682706    -0.866017363760     1.007825032070
           H         -0.819007846860     1.390793682706     0.866982636240     1.007825032070
           H         -1.333007846860    -1.085206317294    -0.875017363760     1.007825032070
           H         -2.564007846860    -0.183206317294    -0.000017363760     1.007825032070
           H         -1.333007846860    -1.085206317294     0.874982636240     1.007825032070

  Running in c1 symmetry.

  Rotational constants: A =      0.56623  B =      0.19747  C =      0.15462 [cm^-1]
  Rotational constants: A =  16975.12374  B =   5920.10169  C =   4635.43738 [MHz]
  Nuclear repulsion =  119.193331033391416

  Charge       = 0
  Multiplicity = 1
  Electrons    = 32
  Nalpha       = 16
  Nbeta        = 16

  ==> Algorithm <==

  SCF Algorithm Type is DF.
  DIIS enabled.
  MOM disabled.
  Fractional occupation disabled.
  Guess Type is CORE.
  Energy threshold   = 1.00e-08
  Density threshold  = 1.00e-08
  Integral threshold = 0.00e+00

  ==> Primary Basis <==

  Basis Set: 6-31G*
    Number of shells: 36
    Number of basis function: 72
    Number of Cartesian functions: 72
    Spherical Harmonics?: false
    Max angular momentum: 2

  ==> Pre-Iterations <==

   -------------------------------------------------------
    Irrep   Nso     Nmo     Nalpha   Nbeta   Ndocc  Nsocc
   -------------------------------------------------------
     A         72      72       0       0       0       0
   -------------------------------------------------------
    Total      72      72      16      16      16       0
   -------------------------------------------------------

 OEINTS: Overlap, kinetic, potential, dipole, and quadrupole integrals
         stored in file 35.

  ==> Integral Setup <==

  ==> DFJK: Density-Fitted J/K Matrices <==

    J tasked:                  Yes
    K tasked:                  Yes
    wK tasked:                  No
    OpenMP threads:              1
    Integrals threads:           1
    Memory (MB):              1430
    Algorithm:                Core
    Integral Cache:           NONE
    Schwarz Cutoff:          1E-12
    Fitting Condition:       1E-12

   => Auxiliary Basis Set <=

  Basis Set: 
    Number of shells: 150
    Number of basis function: 474
    Number of Cartesian functions: 474
    Spherical Harmonics?: false
    Max angular momentum: 3

  Minimum eigenvalue in the overlap matrix is 4.1706526227E-03.
  Using Symmetric Orthogonalization.
  SCF Guess: Core (One-Electron) Hamiltonian.

  ==> Iterations <==

                           Total Energy        Delta E     RMS |[F,P]|

   @DF-RHF iter   1:  -154.37566225868414   -1.54376e+02   8.71828e-02 
   @DF-RHF iter   2:  -133.70371747657828    2.06719e+01   7.50923e-02 DIIS
   @DF-RHF iter   3:  -169.53582037278312   -3.58321e+01   6.51827e-02 DIIS
   @DF-RHF iter   4:  -191.39705105272975   -2.18612e+01   1.46895e-02 DIIS
   @DF-RHF iter   5:  -191.88111994633135   -4.84069e-01   5.61594e-03 DIIS
   @DF-RHF iter   6:  -191.94541132582714   -6.42914e-02   1.51098e-03 DIIS
   @DF-RHF iter   7:  -191.95107049920858   -5.65917e-03   5.60598e-04 DIIS
   @DF-RHF iter   8:  -191.95191079801566   -8.40299e-04   1.20703e-04 DIIS
   @DF-RHF iter   9:  -191.95200763173472   -9.68337e-05   6.40291e-05 DIIS
   @DF-RHF iter  10:  -191.95203268861309   -2.50569e-05   1.90520e-05 DIIS
   @DF-RHF iter  11:  -191.95203536768662   -2.67907e-06   5.27106e-06 DIIS
   @DF-RHF iter  12:  -191.95203555628439   -1.88598e-07   1.29022e-06 DIIS
   @DF-RHF iter  13:  -191.95203556630474   -1.00204e-08   1.99337e-07 DIIS
   @DF-RHF iter  14:  -191.95203556654081   -2.36071e-10   3.62145e-08 DIIS
   @DF-RHF iter  15:  -191.95203556654724   -6.42331e-12   8.93432e-09 DIIS

  ==> Post-Iterations <==

    Orbital Energies (a.u.)
    -----------------------

    Doubly Occupied:                                                      

       1A    -20.565030     2A    -11.329175     3A    -11.240704  
       4A    -11.219383     5A     -1.405354     6A     -1.060205  
       7A     -0.910085     8A     -0.773577     9A     -0.683182  
      10A     -0.635242    11A     -0.630265    12A     -0.540741  
      13A     -0.531872    14A     -0.518930    15A     -0.493088  
      16A     -0.415018  

    Virtual:                                                              

      17A      0.165401    18A      0.236510    19A      0.273695  
      20A      0.296143    21A      0.302765    22A      0.326001  
      23A      0.341139    24A      0.381738    25A      0.459828  
      26A      0.463790    27A      0.726055    28A      0.732158  
      29A      0.769685    30A      0.778334    31A      0.806568  
      32A      0.930960    33A      0.949594    34A      0.980989  
      35A      1.011214    36A      1.077984    37A      1.111498  
      38A      1.126204    39A      1.143401    40A      1.180133  
      41A      1.187616    42A      1.219735    43A      1.245704  
      44A      1.308962    45A      1.346595    46A      1.398262  
      47A      1.646496    48A      1.706812    49A      1.820461  
      50A      1.834053    51A      1.895121    52A      2.053345  
      53A      2.068097    54A      2.112017    55A      2.231997  
      56A      2.263932    57A      2.291004    58A      2.426024  
      59A      2.449075    60A      2.640246    61A      2.662058  
      62A      2.666713    63A      2.738463    64A      2.788099  
      65A      2.959368    66A      3.049845    67A      3.266106  
      68A      3.361634    69A      4.284792    70A      4.516262  
      71A      4.665223    72A      4.885225  

    Final Occupation by Irrep:
              A 
    DOCC [    16 ]

  Energy converged.

  @DF-RHF Final Energy:  -191.95203556654724

   => Energetics <=

    Nuclear Repulsion Energy =            119.1933310333914164
    One-Electron Energy =                -496.3870255505734121
    Two-Electron Energy =                 185.2416589506344735
    DFT Exchange-Correlation Energy =       0.0000000000000000
    Empirical Dispersion Energy =           0.0000000000000000
    PCM Polarization Energy =               0.0000000000000000
    EFP Energy =                            0.0000000000000000
    Total Energy =                       -191.9520355665475222

    Alert: EFP and PCM quantities not currently incorporated into SCF psivars.

Properties will be evaluated at   0.000000,   0.000000,   0.000000 Bohr
  ==> Properties <==


Properties computed using the SCF density matrix

  Nuclear Dipole Moment: (a.u.)
     X:    -5.0139      Y:     1.6297      Z:     0.0008

  Electronic Dipole Moment: (a.u.)
     X:     4.4166      Y:    -0.6658      Z:    -0.0010

  Dipole Moment: (a.u.)
     X:    -0.5973      Y:     0.9639      Z:    -0.0001     Total:     1.1339

  Dipole Moment: (Debye)
     X:    -1.5181      Y:     2.4499      Z:    -0.0003     Total:     2.8821


  Saving occupied orbitals to File 180.

*** tstop() called on cx1-3-5-2.cx1.hpc.ic.ac.uk at Tue Jul  5 16:24:11 2016
Module time:
	user time   =       2.80 seconds =       0.05 minutes
	system time =       0.03 seconds =       0.00 minutes
	total time  =          3 seconds =       0.05 minutes
Total time:
	user time   =       2.80 seconds =       0.05 minutes
	system time =       0.03 seconds =       0.00 minutes
	total time  =          3 seconds =       0.05 minutes

*** tstart() called on cx1-3-5-2.cx1.hpc.ic.ac.uk
*** at Tue Jul  5 16:24:11 2016


         ------------------------------------------------------------
                                   SCF GRAD                          
                          Rob Parrish, Justin Turney,                
                       Andy Simmonett, and Alex Sokolov              
         ------------------------------------------------------------

  ==> Geometry <==

    Molecular point group: c1
    Full point group: C1

    Geometry (in Angstrom), charge = 0, multiplicity = 1:

       Center              X                  Y                   Z               Mass       
    ------------   -----------------  -----------------  -----------------  -----------------
           H          1.512992153140     1.313793682706    -0.000017363760     1.007825032070
           C          0.849992153140     0.440793682706    -0.000017363760    12.000000000000
           C         -0.623007846860     0.760793682706    -0.000017363760    12.000000000000
           O          1.305992153140    -0.656206317294    -0.000017363760    15.994914619560
           C         -1.518007846860    -0.473206317294    -0.000017363760    12.000000000000
           H         -0.819007846860     1.390793682706    -0.866017363760     1.007825032070
           H         -0.819007846860     1.390793682706     0.866982636240     1.007825032070
           H         -1.333007846860    -1.085206317294    -0.875017363760     1.007825032070
           H         -2.564007846860    -0.183206317294    -0.000017363760     1.007825032070
           H         -1.333007846860    -1.085206317294     0.874982636240     1.007825032070

  Nuclear repulsion =  119.193331033391416

  ==> Basis Set <==

  Basis Set: 6-31G*
    Number of shells: 36
    Number of basis function: 72
    Number of Cartesian functions: 72
    Spherical Harmonics?: false
    Max angular momentum: 2

  ==> DFJKGrad: Density-Fitted SCF Gradients <==

    Gradient:                    1
    J tasked:                  Yes
    K tasked:                  Yes
    wK tasked:                  No
    OpenMP threads:              1
    Integrals threads:           1
    Memory (MB):              1430
    Schwarz Cutoff:          0E+00
    Fitting Condition:       1E-12

   => Auxiliary Basis Set <=

  Basis Set: 
    Number of shells: 150
    Number of basis function: 474
    Number of Cartesian functions: 474
    Spherical Harmonics?: false
    Max angular momentum: 3


  -Total Gradient:
     Atom            X                  Y                   Z
    ------   -----------------  -----------------  -----------------
       1        0.000016966553     0.000210165574     0.000000061750
       2       -0.000239131235    -0.000718051937     0.000003244710
       3        0.000607279485     0.000584276338    -0.000437888386
       4       -0.000041773656     0.000242579571    -0.000001946461
       5        0.000375091058    -0.000311562808     0.000005114131
       6       -0.000075989137    -0.000189550657     0.000218812612
       7       -0.000179304375     0.000108343702     0.000208201432
       8        0.000066334784    -0.000068511574    -0.000315688362
       9       -0.000595096859     0.000212785791     0.000000029872
      10        0.000065623379    -0.000070473999     0.000320058703


*** tstop() called on cx1-3-5-2.cx1.hpc.ic.ac.uk at Tue Jul  5 16:24:15 2016
Module time:
	user time   =       3.69 seconds =       0.06 minutes
	system time =       0.02 seconds =       0.00 minutes
	total time  =          4 seconds =       0.07 minutes
Total time:
	user time   =       6.50 seconds =       0.11 minutes
	system time =       0.05 seconds =       0.00 minutes
	total time  =          7 seconds =       0.12 minutes
CURRENT ENERGY: -191.9520355665

			-----------------------------------------
			 OPTKING 2.0: for geometry optimizations 
			  - R.A. King,  Bethel University        
			-----------------------------------------

	Internal coordinates to be generated automatically.
	Detected frag with atoms:  1 2 3 4 5 6 7 8 9 10
	---Fragment 1 Bond Connectivity---
	 1 : 2
	 2 : 1 3 4
	 3 : 2 5 6 7
	 4 : 2
	 5 : 3 8 9 10
	 6 : 3
	 7 : 3
	 8 : 5
	 9 : 5
	 10 : 5

	---Fragment 1 Geometry and Gradient---
	 H           2.8591408106        2.4827102554       -0.0000328128
	 C           1.6062523845        0.8329793414       -0.0000328128
	 C          -1.1773142092        1.4376917039       -0.0000328128
	 O           2.4679675011       -1.2400502264       -0.0000328128
	 C          -2.8686190981       -0.8942303440       -0.0000328128
	 H          -1.5477005313        2.6282191677       -1.6365356438
	 H          -1.5477005313        2.6282191677        1.6383597445
	 H          -2.5190197636       -2.0507427374       -1.6535431790
	 H          -4.8452726331       -0.3462097655       -0.0000328128
	 H          -2.5190197636       -2.0507427374        1.6534775535
	             0.0000169666        0.0002101656        0.0000000617
	            -0.0002391312       -0.0007180519        0.0000032447
	             0.0006072795        0.0005842763       -0.0004378884
	            -0.0000417737        0.0002425796       -0.0000019465
	             0.0003750911       -0.0003115628        0.0000051141
	            -0.0000759891       -0.0001895507        0.0002188126
	            -0.0001793044        0.0001083437        0.0002082014
	             0.0000663348       -0.0000685116       -0.0003156884
	            -0.0005950969        0.0002127858        0.0000000299
	             0.0000656234       -0.0000704740        0.0003200587

	Previous optimization step data not found.  Starting new optimization.

	---Fragment 1 Intrafragment Coordinates---
	 - Coordinate -           - BOHR/RAD -       - ANG/DEG -
	 R(1,2)           =         2.071555	       1.096220
	 R(2,3)           =         2.848494	       1.507358
	 R(2,4)           =         2.244995	       1.188001
	 R(3,5)           =         2.880690	       1.524395
	 R(3,6)           =         2.057349	       1.088702
	 R(3,7)           =         2.058852	       1.089498
	 R(5,8)           =         2.047886	       1.083695
	 R(5,9)           =         2.051216	       1.085457
	 R(5,10)          =         2.047886	       1.083695
	 B(1,2,3)         =         2.006398	     114.958161
	 B(1,2,4)         =         2.098121	     120.213504
	 B(2,3,5)         =         1.984371	     113.696063
	 B(2,3,6)         =         1.874205	     107.384009
	 B(2,3,7)         =         1.873976	     107.370911
	 B(3,2,4)         =         2.178665	     124.828335
	 B(3,5,8)         =         1.935771	     110.911485
	 B(3,5,9)         =         1.927837	     110.456906
	 B(3,5,10)        =         1.935771	     110.911485
	 B(5,3,6)         =         1.941998	     111.268279
	 B(5,3,7)         =         1.941714	     111.251993
	 B(6,3,7)         =         1.840032	     105.426043
	 B(8,5,9)         =         1.891660	     108.384136
	 B(8,5,10)        =         1.879542	     107.689829
	 B(9,5,10)        =         1.891660	     108.384136
	 D(1,2,3,5)       =         3.141593	     180.000000
	 D(1,2,3,6)       =         0.985439	      56.461471
	 D(1,2,3,7)       =        -0.985970	     -56.491915
	 D(2,3,5,8)       =        -1.043868	     -59.809205
	 D(2,3,5,9)       =         3.141593	     180.000000
	 D(2,3,5,10)      =         1.043868	      59.809205
	 D(4,2,3,5)       =         0.000000	       0.000000
	 D(4,2,3,6)       =        -2.156154	    -123.538529
	 D(4,2,3,7)       =         2.155623	     123.508085
	 D(6,3,5,8)       =         1.074910	      61.587806
	 D(6,3,5,9)       =        -1.022815	     -58.602990
	 D(6,3,5,10)      =        -3.120540	    -178.793785
	 D(7,3,5,8)       =         3.121053	     178.823181
	 D(7,3,5,9)       =         1.023328	      58.632386
	 D(7,3,5,10)      =        -1.074397	     -61.558410

	Current energy   :      -191.9520355665

	Generating empirical Hessian (Schlegel '84) for each fragment.
	Taking RFO optimization step.
	Going to follow RFO solution 1.
	Using RFO vector 1.
	Norm of target step-size    0.00465
	Projected energy change by RFO approximation:        -0.0000036426

	Back-transformation to cartesian coordinates...
	Successfully converged to displaced geometry.

	--- Internal Coordinate Step in ANG or DEG, aJ/ANG or AJ/DEG ---
	 ---------------------------------------------------------------------------
	   Coordinate                Previous        Force       Change         New 
	   ----------                --------       ------       ------       ------
	    1 R(1,2)          =      1.096220    -0.001463    -0.000276     1.095944
	    2 R(2,3)          =      1.507358     0.001661     0.000337     1.507696
	    3 R(2,4)          =      1.188001     0.001978     0.000114     1.188115
	    4 R(3,5)          =      1.524395    -0.002012    -0.000431     1.523964
	    5 R(3,6)          =      1.088702     0.002225     0.000409     1.089111
	    6 R(3,7)          =      1.089498    -0.002147    -0.000395     1.089102
	    7 R(5,8)          =      1.083695    -0.002512    -0.000454     1.083241
	    8 R(5,9)          =      1.085457    -0.005193    -0.000944     1.084513
	    9 R(5,10)         =      1.083695    -0.002549    -0.000461     1.083234
	   10 B(1,2,3)        =    114.958161     0.000015     0.062975   115.021136
	   11 B(1,2,4)        =    120.213504    -0.000003    -0.021291   120.192213
	   12 B(2,3,5)        =    113.696063     0.000021     0.071381   113.767444
	   13 B(2,3,6)        =    107.384009    -0.000013    -0.073716   107.310293
	   14 B(2,3,7)        =    107.370911    -0.000014    -0.072928   107.297983
	   15 B(3,2,4)        =    124.828335    -0.000012    -0.041686   124.786649
	   16 B(3,5,8)        =    110.911485     0.000008     0.029707   110.941192
	   17 B(3,5,9)        =    110.456906     0.000003     0.025852   110.482759
	   18 B(3,5,10)       =    110.911485     0.000008     0.029655   110.941140
	   19 B(5,3,6)        =    111.268279     0.000001     0.030537   111.298816
	   20 B(5,3,7)        =    111.251993     0.000002     0.041055   111.293048
	   21 B(6,3,7)        =    105.426043     0.000001    -0.008632   105.417411
	   22 B(8,5,9)        =    108.384136    -0.000004    -0.007842   108.376295
	   23 B(8,5,10)       =    107.689829    -0.000011    -0.073962   107.615867
	   24 B(9,5,10)       =    108.384136    -0.000004    -0.007346   108.376790
	   25 D(1,2,3,5)      =    180.000000    -0.000000    -0.005232   179.994768
	   26 D(1,2,3,6)      =     56.461471    -0.000001    -0.037716    56.423755
	   27 D(1,2,3,7)      =    -56.491915     0.000001     0.041266   -56.450649
	   28 D(2,3,5,8)      =    -59.809205     0.000000     0.018022   -59.791183
	   29 D(2,3,5,9)      =    180.000000     0.000000    -0.008638   179.991362
	   30 D(2,3,5,10)     =     59.809205    -0.000000    -0.035886    59.773318
	   31 D(4,2,3,5)      =      0.000000    -0.000000    -0.021897    -0.021897
	   32 D(4,2,3,6)      =   -123.538529    -0.000001    -0.054381  -123.592910
	   33 D(4,2,3,7)      =    123.508085     0.000001     0.024601   123.532686
	   34 D(6,3,5,8)      =     61.587806     0.000000    -0.003905    61.583901
	   35 D(6,3,5,9)      =    -58.602990    -0.000000    -0.030565   -58.633555
	   36 D(6,3,5,10)     =   -178.793785    -0.000001    -0.057813  -178.851598
	   37 D(7,3,5,8)      =    178.823181     0.000001     0.031040   178.854221
	   38 D(7,3,5,9)      =     58.632386     0.000000     0.004380    58.636766
	   39 D(7,3,5,10)     =    -61.558410    -0.000000    -0.022868   -61.581278
	 ---------------------------------------------------------------------------

  ==> Convergence Check <==

  Measures of convergence in internal coordinates in au.
  Criteria marked as inactive (o), active & met (*), and active & unmet ( ).
  --------------------------------------------------------------------------------------------- ~
   Step     Total Energy     Delta E     MAX Force     RMS Force      MAX Disp      RMS Disp    ~
  --------------------------------------------------------------------------------------------- ~
    Convergence Criteria    1.00e-06 *    3.00e-04 *             o    1.20e-03 *             o  ~
  --------------------------------------------------------------------------------------------- ~
      1    -191.95203557   -1.92e+02      6.30e-04      1.75e-04 o    1.78e-03      7.45e-04 o  ~
  ---------------------------------------------------------------------------------------------

	Writing optimization data to binary file.
	Structure for next step:
	Cartesian Geometry (in Angstrom)
	    H     1.5132981419   1.3141037472  -0.0000212970
	    C     0.8502744385   0.4414677744   0.0000181645
	    C    -0.6233368048   0.7602412887   0.0000816766
	    O     1.3064867231  -0.6555678541   0.0002930083
	    C    -1.5185335833  -0.4730830388   0.0000081864
	    H    -0.8185282432   1.3907959035  -0.8662112986
	    H    -0.8183075020   1.3904023643   0.8666998758
	    H    -1.3340242878  -1.0853523873  -0.8743448844
	    H    -2.5636492435  -0.1834254479   0.0002113877
	    H    -1.3337585152  -1.0856453844   0.8740915432
			--------------------------
			 OPTKING Finished Execution 
			--------------------------

    Structure for next step:
    Molecular point group: c1
    Full point group: C1

    Geometry (in Angstrom), charge = 0, multiplicity = 1:

    H            1.513278734559     1.313892391328    -0.000131762596
    C            0.850255081757     0.441256485155    -0.000092301053
    C           -0.623356049038     0.760029975095    -0.000028788947
    O            1.306467331518    -0.655779059531     0.000182542684
    C           -1.518552759169    -0.473294258223    -0.000102279138
    H           -0.818547472507     1.390584541749    -0.866321697981
    H           -0.818326731348     1.390191002555     0.866589344020
    H           -1.334043477714    -1.085563559921    -0.874455283238
    H           -2.563668339504    -0.183636689426     0.000100922073
    H           -1.333777705159    -1.085856556993     0.873981010914

gradient() will perform analytic gradient computation.

*** tstart() called on cx1-3-5-2.cx1.hpc.ic.ac.uk
*** at Tue Jul  5 16:24:15 2016


         ---------------------------------------------------------
                                   SCF
            by Justin Turney, Rob Parrish, and Andy Simmonett
                              RHF Reference
                        1 Threads,   2000 MiB Core
         ---------------------------------------------------------

  ==> Geometry <==

    Molecular point group: c1
    Full point group: C1

    Geometry (in Angstrom), charge = 0, multiplicity = 1:

       Center              X                  Y                   Z               Mass       
    ------------   -----------------  -----------------  -----------------  -----------------
           H          1.513278734559     1.313892391328    -0.000131762596     1.007825032070
           C          0.850255081757     0.441256485155    -0.000092301053    12.000000000000
           C         -0.623356049038     0.760029975095    -0.000028788947    12.000000000000
           O          1.306467331518    -0.655779059531     0.000182542684    15.994914619560
           C         -1.518552759169    -0.473294258223    -0.000102279138    12.000000000000
           H         -0.818547472507     1.390584541749    -0.866321697981     1.007825032070
           H         -0.818326731348     1.390191002555     0.866589344020     1.007825032070
           H         -1.334043477714    -1.085563559921    -0.874455283238     1.007825032070
           H         -2.563668339504    -0.183636689426     0.000100922073     1.007825032070
           H         -1.333777705159    -1.085856556993     0.873981010914     1.007825032070

  Running in c1 symmetry.

  Rotational constants: A =      0.56654  B =      0.19737  C =      0.15457 [cm^-1]
  Rotational constants: A =  16984.56834  B =   5916.88235  C =   4633.91932 [MHz]
  Nuclear repulsion =  119.192307857645389

  Charge       = 0
  Multiplicity = 1
  Electrons    = 32
  Nalpha       = 16
  Nbeta        = 16

  ==> Algorithm <==

  SCF Algorithm Type is DF.
  DIIS enabled.
  MOM disabled.
  Fractional occupation disabled.
  Guess Type is READ.
  Energy threshold   = 1.00e-08
  Density threshold  = 1.00e-08
  Integral threshold = 0.00e+00

  ==> Primary Basis <==

  Basis Set: 6-31G*
    Number of shells: 36
    Number of basis function: 72
    Number of Cartesian functions: 72
    Spherical Harmonics?: false
    Max angular momentum: 2

  ==> Pre-Iterations <==

   -------------------------------------------------------
    Irrep   Nso     Nmo     Nalpha   Nbeta   Ndocc  Nsocc
   -------------------------------------------------------
     A         72      72       0       0       0       0
   -------------------------------------------------------
    Total      72      72      16      16      16       0
   -------------------------------------------------------

 OEINTS: Overlap, kinetic, potential, dipole, and quadrupole integrals
         stored in file 35.

  ==> Integral Setup <==

  ==> DFJK: Density-Fitted J/K Matrices <==

    J tasked:                  Yes
    K tasked:                  Yes
    wK tasked:                  No
    OpenMP threads:              1
    Integrals threads:           1
    Memory (MB):              1430
    Algorithm:                Core
    Integral Cache:           NONE
    Schwarz Cutoff:          1E-12
    Fitting Condition:       1E-12

   => Auxiliary Basis Set <=

  Basis Set: 
    Number of shells: 150
    Number of basis function: 474
    Number of Cartesian functions: 474
    Spherical Harmonics?: false
    Max angular momentum: 3

  Minimum eigenvalue in the overlap matrix is 4.1696946224E-03.
  Using Symmetric Orthogonalization.
  SCF Guess: Reading in previously saved MOs, projecting if necessary.

  Using orbitals from previous SCF, no projection.
  Recomputing DOCC and SOCC from number of alpha and beta electrons from previous calculation.
              A 
    DOCC [    16 ]

  ==> Iterations <==

                           Total Energy        Delta E     RMS |[F,P]|

   @DF-RHF iter   0:  -191.95266721150239   -1.91953e+02   3.09462e-05 
   @DF-RHF iter   1:  -191.95203752596660    6.29686e-04   5.72078e-06 
   @DF-RHF iter   2:  -191.95203761597946   -9.00129e-08   2.92479e-06 DIIS
   @DF-RHF iter   3:  -191.95203763337190   -1.73924e-08   6.98697e-07 DIIS
   @DF-RHF iter   4:  -191.95203763504475   -1.67284e-09   2.99102e-07 DIIS
   @DF-RHF iter   5:  -191.95203763533760   -2.92857e-10   6.58283e-08 DIIS
   @DF-RHF iter   6:  -191.95203763537239   -3.47882e-11   2.60853e-08 DIIS
   @DF-RHF iter   7:  -191.95203763537808   -5.68434e-12   9.12599e-09 DIIS

  ==> Post-Iterations <==

    Orbital Energies (a.u.)
    -----------------------

    Doubly Occupied:                                                      

       1A    -20.564954     2A    -11.329141     3A    -11.240704  
       4A    -11.219171     5A     -1.405223     6A     -1.060242  
       7A     -0.910264     8A     -0.773673     9A     -0.683129  
      10A     -0.635213    11A     -0.630159    12A     -0.541048  
      13A     -0.531844    14A     -0.519114    15A     -0.492997  
      16A     -0.414991  

    Virtual:                                                              

      17A      0.165462    18A      0.236584    19A      0.273729  
      20A      0.296102    21A      0.302748    22A      0.326160  
      23A      0.341195    24A      0.381914    25A      0.459768  
      26A      0.463744    27A      0.726044    28A      0.731952  
      29A      0.769377    30A      0.778335    31A      0.806648  
      32A      0.931199    33A      0.949522    34A      0.980906  
      35A      1.011384    36A      1.078201    37A      1.111604  
      38A      1.126216    39A      1.143622    40A      1.180347  
      41A      1.188027    42A      1.219908    43A      1.246328  
      44A      1.308950    45A      1.346749    46A      1.398294  
      47A      1.646359    48A      1.706756    49A      1.820479  
      50A      1.833799    51A      1.894935    52A      2.053228  
      53A      2.068201    54A      2.112301    55A      2.231708  
      56A      2.263947    57A      2.290881    58A      2.426372  
      59A      2.449220    60A      2.641092    61A      2.663200  
      62A      2.666364    63A      2.738584    64A      2.788140  
      65A      2.959275    66A      3.049856    67A      3.265820  
      68A      3.361462    69A      4.284525    70A      4.516204  
      71A      4.665379    72A      4.885176  

    Final Occupation by Irrep:
              A 
    DOCC [    16 ]

  Energy converged.

  @DF-RHF Final Energy:  -191.95203763537808

   => Energetics <=

    Nuclear Repulsion Energy =            119.1923078576453889
    One-Electron Energy =                -496.3849574758022527
    Two-Electron Energy =                 185.2406119827786313
    DFT Exchange-Correlation Energy =       0.0000000000000000
    Empirical Dispersion Energy =           0.0000000000000000
    PCM Polarization Energy =               0.0000000000000000
    EFP Energy =                            0.0000000000000000
    Total Energy =                       -191.9520376353782183

    Alert: EFP and PCM quantities not currently incorporated into SCF psivars.

Properties will be evaluated at   0.000000,   0.000000,   0.000000 Bohr
  ==> Properties <==


Properties computed using the SCF density matrix

  Nuclear Dipole Moment: (a.u.)
     X:    -5.0140      Y:     1.6277      Z:    -0.0002

  Electronic Dipole Moment: (a.u.)
     X:     4.4163      Y:    -0.6640      Z:     0.0001

  Dipole Moment: (a.u.)
     X:    -0.5976      Y:     0.9636      Z:    -0.0002     Total:     1.1339

  Dipole Moment: (Debye)
     X:    -1.5191      Y:     2.4493      Z:    -0.0004     Total:     2.8821


  Saving occupied orbitals to File 180.

*** tstop() called on cx1-3-5-2.cx1.hpc.ic.ac.uk at Tue Jul  5 16:24:18 2016
Module time:
	user time   =       2.39 seconds =       0.04 minutes
	system time =       0.02 seconds =       0.00 minutes
	total time  =          3 seconds =       0.05 minutes
Total time:
	user time   =       8.97 seconds =       0.15 minutes
	system time =       0.08 seconds =       0.00 minutes
	total time  =         10 seconds =       0.17 minutes

*** tstart() called on cx1-3-5-2.cx1.hpc.ic.ac.uk
*** at Tue Jul  5 16:24:18 2016


         ------------------------------------------------------------
                                   SCF GRAD                          
                          Rob Parrish, Justin Turney,                
                       Andy Simmonett, and Alex Sokolov              
         ------------------------------------------------------------

  ==> Geometry <==

    Molecular point group: c1
    Full point group: C1

    Geometry (in Angstrom), charge = 0, multiplicity = 1:

       Center              X                  Y                   Z               Mass       
    ------------   -----------------  -----------------  -----------------  -----------------
           H          1.513278734559     1.313892391328    -0.000131762596     1.007825032070
           C          0.850255081757     0.441256485155    -0.000092301053    12.000000000000
           C         -0.623356049038     0.760029975095    -0.000028788947    12.000000000000
           O          1.306467331518    -0.655779059531     0.000182542684    15.994914619560
           C         -1.518552759169    -0.473294258223    -0.000102279138    12.000000000000
           H         -0.818547472507     1.390584541749    -0.866321697981     1.007825032070
           H         -0.818326731348     1.390191002555     0.866589344020     1.007825032070
           H         -1.334043477714    -1.085563559921    -0.874455283238     1.007825032070
           H         -2.563668339504    -0.183636689426     0.000100922073     1.007825032070
           H         -1.333777705159    -1.085856556993     0.873981010914     1.007825032070

  Nuclear repulsion =  119.192307857645389

  ==> Basis Set <==

  Basis Set: 6-31G*
    Number of shells: 36
    Number of basis function: 72
    Number of Cartesian functions: 72
    Spherical Harmonics?: false
    Max angular momentum: 2

  ==> DFJKGrad: Density-Fitted SCF Gradients <==

    Gradient:                    1
    J tasked:                  Yes
    K tasked:                  Yes
    wK tasked:                  No
    OpenMP threads:              1
    Integrals threads:           1
    Memory (MB):              1430
    Schwarz Cutoff:          0E+00
    Fitting Condition:       1E-12

   => Auxiliary Basis Set <=

  Basis Set: 
    Number of shells: 150
    Number of basis function: 474
    Number of Cartesian functions: 474
    Spherical Harmonics?: false
    Max angular momentum: 3


  -Total Gradient:
     Atom            X                  Y                   Z
    ------   -----------------  -----------------  -----------------
       1        0.000037119809     0.000012672959     0.000010569074
       2        0.000031016378    -0.000058934002    -0.000024356372
       3        0.000064186203     0.000095370517     0.000001106974
       4       -0.000052247948     0.000094478044     0.000011630731
       5       -0.000089535580    -0.000127745433     0.000007518121
       6        0.000006498447    -0.000021273527     0.000005536487
       7        0.000012787281    -0.000034236972    -0.000010121007
       8       -0.000018972838     0.000032961168     0.000037954066
       9        0.000029477133    -0.000026358067     0.000000328262
      10       -0.000020328891     0.000033065314    -0.000040166336


*** tstop() called on cx1-3-5-2.cx1.hpc.ic.ac.uk at Tue Jul  5 16:24:21 2016
Module time:
	user time   =       3.12 seconds =       0.05 minutes
	system time =       0.01 seconds =       0.00 minutes
	total time  =          3 seconds =       0.05 minutes
Total time:
	user time   =      12.10 seconds =       0.20 minutes
	system time =       0.09 seconds =       0.00 minutes
	total time  =         13 seconds =       0.22 minutes
CURRENT ENERGY: -191.9520376354

			-----------------------------------------
			 OPTKING 2.0: for geometry optimizations 
			  - R.A. King,  Bethel University        
			-----------------------------------------

	Previous internal coordinate definitions found.
	---Fragment 1 Geometry and Gradient---
	 H           2.8596823710        2.4828967877       -0.0002489952
	 C           1.6067492476        0.8338539113       -0.0001744237
	 C          -1.1779722160        1.4362485057       -0.0000544032
	 O           2.4688654581       -1.2392428262        0.0003449557
	 C          -2.8696488332       -0.8943965283       -0.0001932796
	 H          -1.5468305498        2.6278239485       -1.6371107522
	 H          -1.5464134095        2.6270802672        1.6376165299
	 H          -2.5209768222       -2.0514178281       -1.6524810008
	 H          -4.8446310572       -0.3470230510        0.0001907151
	 H          -2.5204745849       -2.0519715123        1.6515847560
	             0.0000371198        0.0000126730        0.0000105691
	             0.0000310164       -0.0000589340       -0.0000243564
	             0.0000641862        0.0000953705        0.0000011070
	            -0.0000522479        0.0000944780        0.0000116307
	            -0.0000895356       -0.0001277454        0.0000075181
	             0.0000064984       -0.0000212735        0.0000055365
	             0.0000127873       -0.0000342370       -0.0000101210
	            -0.0000189728        0.0000329612        0.0000379541
	             0.0000294771       -0.0000263581        0.0000003283
	            -0.0000203289        0.0000330653       -0.0000401663

	---Fragment 1 Intrafragment Coordinates---
	 - Coordinate -           - BOHR/RAD -       - ANG/DEG -
	 R(1,2)           =         2.071034	       1.095944
	 R(2,3)           =         2.849132	       1.507696
	 R(2,4)           =         2.245212	       1.188115
	 R(3,5)           =         2.879874	       1.523964
	 R(3,6)           =         2.058121	       1.089111
	 R(3,7)           =         2.058105	       1.089102
	 R(5,8)           =         2.047028	       1.083241
	 R(5,9)           =         2.049432	       1.084513
	 R(5,10)          =         2.047016	       1.083234
	 B(1,2,3)         =         2.007498	     115.021136
	 B(1,2,4)         =         2.097750	     120.192213
	 B(2,3,5)         =         1.985616	     113.767444
	 B(2,3,6)         =         1.872918	     107.310293
	 B(2,3,7)         =         1.872703	     107.297983
	 B(3,2,4)         =         2.177938	     124.786649
	 B(3,5,8)         =         1.936289	     110.941192
	 B(3,5,9)         =         1.928288	     110.482759
	 B(3,5,10)        =         1.936288	     110.941140
	 B(5,3,6)         =         1.942531	     111.298816
	 B(5,3,7)         =         1.942430	     111.293048
	 B(6,3,7)         =         1.839881	     105.417411
	 B(8,5,9)         =         1.891523	     108.376295
	 B(8,5,10)        =         1.878251	     107.615867
	 B(9,5,10)        =         1.891532	     108.376790
	 D(1,2,3,5)       =         3.141501	     179.994768
	 D(1,2,3,6)       =         0.984780	      56.423755
	 D(1,2,3,7)       =        -0.985250	     -56.450649
	 D(2,3,5,8)       =        -1.043553	     -59.791183
	 D(2,3,5,9)       =         3.141442	     179.991362
	 D(2,3,5,10)      =         1.043241	      59.773318
	 D(4,2,3,5)       =        -0.000382	      -0.021897
	 D(4,2,3,6)       =        -2.157103	    -123.592910
	 D(4,2,3,7)       =         2.156052	     123.532686
	 D(6,3,5,8)       =         1.074842	      61.583901
	 D(6,3,5,9)       =        -1.023349	     -58.633555
	 D(6,3,5,10)      =        -3.121549	    -178.851598
	 D(7,3,5,8)       =         3.121595	     178.854221
	 D(7,3,5,9)       =         1.023405	      58.636766
	 D(7,3,5,10)      =        -1.074796	     -61.581278

	Current energy   :      -191.9520376354

	Energy change for the previous step:
		Projected    :        -0.0000036426
		Actual       :        -0.0000020688

	Performing BFGS update.
	Previous computed or guess Hessian on step 1.
	Steps to be used in Hessian update: 1
	Taking RFO optimization step.
	Going to follow RFO solution 1.
	Using RFO vector 1.
	Norm of target step-size    0.00412
	Projected energy change by RFO approximation:        -0.0000004973

	Back-transformation to cartesian coordinates...
	Successfully converged to displaced geometry.

	--- Internal Coordinate Step in ANG or DEG, aJ/ANG or AJ/DEG ---
	 ---------------------------------------------------------------------------
	   Coordinate                Previous        Force       Change         New 
	   ----------                --------       ------       ------       ------
	    1 R(1,2)          =      1.095944    -0.000268    -0.000060     1.095884
	    2 R(2,3)          =      1.507696    -0.000044     0.000006     1.507702
	    3 R(2,4)          =      1.188115     0.000884     0.000054     1.188169
	    4 R(3,5)          =      1.523964    -0.001068    -0.000238     1.523726
	    5 R(3,6)          =      1.089111     0.000147     0.000043     1.089154
	    6 R(3,7)          =      1.089102     0.000248     0.000027     1.089129
	    7 R(5,8)          =      1.083241     0.000432     0.000056     1.083296
	    8 R(5,9)          =      1.084513     0.000292     0.000011     1.084524
	    9 R(5,10)         =      1.083234     0.000450     0.000058     1.083292
	   10 B(1,2,3)        =    115.021136    -0.000003    -0.009298   115.011838
	   11 B(1,2,4)        =    120.192213     0.000000     0.002678   120.194891
	   12 B(2,3,5)        =    113.767444    -0.000004    -0.008927   113.758517
	   13 B(2,3,6)        =    107.310293     0.000001    -0.001242   107.309051
	   14 B(2,3,7)        =    107.297983     0.000002     0.005774   107.303757
	   15 B(3,2,4)        =    124.786649     0.000003     0.006397   124.793046
	   16 B(3,5,8)        =    110.941192    -0.000000     0.000440   110.941632
	   17 B(3,5,9)        =    110.482759    -0.000002    -0.004929   110.477830
	   18 B(3,5,10)       =    110.941140    -0.000000    -0.000592   110.940548
	   19 B(5,3,6)        =    111.298816     0.000001     0.003519   111.302334
	   20 B(5,3,7)        =    111.293048     0.000001     0.009272   111.302320
	   21 B(6,3,7)        =    105.417411    -0.000001    -0.008654   105.408757
	   22 B(8,5,9)        =    108.376295     0.000001     0.005579   108.381874
	   23 B(8,5,10)       =    107.615867    -0.000000    -0.005979   107.609888
	   24 B(9,5,10)       =    108.376790     0.000001     0.005750   108.382540
	   25 D(1,2,3,5)      =    179.994768    -0.000000    -0.095677   179.899091
	   26 D(1,2,3,6)      =     56.423755    -0.000000    -0.093318    56.330436
	   27 D(1,2,3,7)      =    -56.450649    -0.000000    -0.085513   -56.536162
	   28 D(2,3,5,8)      =    -59.791183     0.000000     0.011178   -59.780004
	   29 D(2,3,5,9)      =    179.991362     0.000000     0.007141   179.998504
	   30 D(2,3,5,10)     =     59.773318     0.000000     0.003567    59.776886
	   31 D(4,2,3,5)      =     -0.021897     0.000000     0.094053     0.072156
	   32 D(4,2,3,6)      =   -123.592910     0.000000     0.096411  -123.496499
	   33 D(4,2,3,7)      =    123.532686     0.000000     0.104216   123.636903
	   34 D(6,3,5,8)      =     61.583901     0.000000     0.005727    61.589627
	   35 D(6,3,5,9)      =    -58.633555    -0.000000     0.001690   -58.631865
	   36 D(6,3,5,10)     =   -178.851598    -0.000000    -0.001884  -178.853483
	   37 D(7,3,5,8)      =    178.854221     0.000000     0.003095   178.857316
	   38 D(7,3,5,9)      =     58.636766    -0.000000    -0.000942    58.635824
	   39 D(7,3,5,10)     =    -61.581278    -0.000000    -0.004516   -61.585794
	 ---------------------------------------------------------------------------

  ==> Convergence Check <==

  Measures of convergence in internal coordinates in au.
  Criteria marked as inactive (o), active & met (*), and active & unmet ( ).
  ---------------------------------------------------------------------------------------------
   Step     Total Energy     Delta E     MAX Force     RMS Force      MAX Disp      RMS Disp   
  ---------------------------------------------------------------------------------------------
    Convergence Criteria    1.00e-06 *    3.00e-04 *             o    1.20e-03 *             o
  ---------------------------------------------------------------------------------------------
      2    -191.95203764   -2.07e-06      1.30e-04 *    3.43e-05 o    1.82e-03      6.60e-04 o  ~
  ---------------------------------------------------------------------------------------------

	Writing optimization data to binary file.
	Structure for next step:
	Cartesian Geometry (in Angstrom)
	    H     1.5130447507   1.3137590433  -0.0008134029
	    C     0.8501298229   0.4411171983   0.0006800376
	    C    -0.6234617849   0.7600085727   0.0002839134
	    O     1.3063989215  -0.6559525077  -0.0005021928
	    C    -1.5184242385  -0.4731918577  -0.0000653771
	    H    -0.8183259594   1.3905658557  -0.8661352484
	    H    -0.8187309959   1.3903575274   0.8667322272
	    H    -1.3334539978  -1.0855861360  -0.8743024255
	    H    -2.5635475267  -0.1835215915  -0.0003149487
	    H    -1.3339007864  -1.0857316945   0.8741591238
			--------------------------
			 OPTKING Finished Execution 
			--------------------------

    Structure for next step:
    Molecular point group: c1
    Full point group: C1

    Geometry (in Angstrom), charge = 0, multiplicity = 1:

    H            1.513081713400     1.313814765886    -0.000849073679
    C            0.850166836246     0.441172987438     0.000644366726
    C           -0.623424659013     0.760064337518     0.000248242564
    O            1.306435900002    -0.655896634701    -0.000537863597
    C           -1.518387044355    -0.473135998687    -0.000101047959
    H           -0.818288818652     1.390621572407    -0.866170853066
    H           -0.818693855124     1.390413244108     0.866696490136
    H           -1.333416817793    -1.085530230242    -0.874338029601
    H           -2.563510252746    -0.183465754583    -0.000350619564
    H           -1.333863606288    -1.085675788679     0.874123386214

gradient() will perform analytic gradient computation.

*** tstart() called on cx1-3-5-2.cx1.hpc.ic.ac.uk
*** at Tue Jul  5 16:24:21 2016


         ---------------------------------------------------------
                                   SCF
            by Justin Turney, Rob Parrish, and Andy Simmonett
                              RHF Reference
                        1 Threads,   2000 MiB Core
         ---------------------------------------------------------

  ==> Geometry <==

    Molecular point group: c1
    Full point group: C1

    Geometry (in Angstrom), charge = 0, multiplicity = 1:

       Center              X                  Y                   Z               Mass       
    ------------   -----------------  -----------------  -----------------  -----------------
           H          1.513081713400     1.313814765886    -0.000849073679     1.007825032070
           C          0.850166836246     0.441172987438     0.000644366726    12.000000000000
           C         -0.623424659013     0.760064337518     0.000248242564    12.000000000000
           O          1.306435900002    -0.655896634701    -0.000537863597    15.994914619560
           C         -1.518387044355    -0.473135998687    -0.000101047959    12.000000000000
           H         -0.818288818652     1.390621572407    -0.866170853066     1.007825032070
           H         -0.818693855124     1.390413244108     0.866696490136     1.007825032070
           H         -1.333416817793    -1.085530230242    -0.874338029601     1.007825032070
           H         -2.563510252746    -0.183465754583    -0.000350619564     1.007825032070
           H         -1.333863606288    -1.085675788679     0.874123386214     1.007825032070

  Running in c1 symmetry.

  Rotational constants: A =      0.56656  B =      0.19739  C =      0.15459 [cm^-1]
  Rotational constants: A =  16985.03756  B =   5917.55054  C =   4634.36180 [MHz]
  Nuclear repulsion =  119.195193782252261

  Charge       = 0
  Multiplicity = 1
  Electrons    = 32
  Nalpha       = 16
  Nbeta        = 16

  ==> Algorithm <==

  SCF Algorithm Type is DF.
  DIIS enabled.
  MOM disabled.
  Fractional occupation disabled.
  Guess Type is READ.
  Energy threshold   = 1.00e-08
  Density threshold  = 1.00e-08
  Integral threshold = 0.00e+00

  ==> Primary Basis <==

  Basis Set: 6-31G*
    Number of shells: 36
    Number of basis function: 72
    Number of Cartesian functions: 72
    Spherical Harmonics?: false
    Max angular momentum: 2

  ==> Pre-Iterations <==

   -------------------------------------------------------
    Irrep   Nso     Nmo     Nalpha   Nbeta   Ndocc  Nsocc
   -------------------------------------------------------
     A         72      72       0       0       0       0
   -------------------------------------------------------
    Total      72      72      16      16      16       0
   -------------------------------------------------------

 OEINTS: Overlap, kinetic, potential, dipole, and quadrupole integrals
         stored in file 35.

  ==> Integral Setup <==

  ==> DFJK: Density-Fitted J/K Matrices <==

    J tasked:                  Yes
    K tasked:                  Yes
    wK tasked:                  No
    OpenMP threads:              1
    Integrals threads:           1
    Memory (MB):              1430
    Algorithm:                Core
    Integral Cache:           NONE
    Schwarz Cutoff:          1E-12
    Fitting Condition:       1E-12

   => Auxiliary Basis Set <=

  Basis Set: 
    Number of shells: 150
    Number of basis function: 474
    Number of Cartesian functions: 474
    Spherical Harmonics?: false
    Max angular momentum: 3

  Minimum eigenvalue in the overlap matrix is 4.1693088275E-03.
  Using Symmetric Orthogonalization.
  SCF Guess: Reading in previously saved MOs, projecting if necessary.

  Using orbitals from previous SCF, no projection.
  Recomputing DOCC and SOCC from number of alpha and beta electrons from previous calculation.
              A 
    DOCC [    16 ]

  ==> Iterations <==

                           Total Energy        Delta E     RMS |[F,P]|

   @DF-RHF iter   0:  -191.95197449038972   -1.91952e+02   3.54829e-05 
   @DF-RHF iter   1:  -191.95203713093809   -6.26405e-05   4.71515e-06 
   @DF-RHF iter   2:  -191.95203725019337   -1.19255e-07   1.77165e-06 DIIS
   @DF-RHF iter   3:  -191.95203727576870   -2.55753e-08   5.93808e-07 DIIS
   @DF-RHF iter   4:  -191.95203727861036   -2.84166e-09   3.57658e-07 DIIS
   @DF-RHF iter   5:  -191.95203727993635   -1.32599e-09   1.57182e-07 DIIS
   @DF-RHF iter   6:  -191.95203728025905   -3.22700e-10   5.86001e-08 DIIS
   @DF-RHF iter   7:  -191.95203728030958   -5.05338e-11   2.67143e-08 DIIS
   @DF-RHF iter   8:  -191.95203728032089   -1.13118e-11   7.60691e-09 DIIS

  ==> Post-Iterations <==

    Orbital Energies (a.u.)
    -----------------------

    Doubly Occupied:                                                      

       1A    -20.564962     2A    -11.329144     3A    -11.240702  
       4A    -11.219165     5A     -1.405189     6A     -1.060293  
       7A     -0.910256     8A     -0.773675     9A     -0.683137  
      10A     -0.635214    11A     -0.630167    12A     -0.541052  
      13A     -0.531809    14A     -0.519160    15A     -0.492968  
      16A     -0.414998  

    Virtual:                                                              

      17A      0.165437    18A      0.236577    19A      0.273719  
      20A      0.296074    21A      0.302774    22A      0.326154  
      23A      0.341195    24A      0.381973    25A      0.459766  
      26A      0.463738    27A      0.726010    28A      0.731984  
      29A      0.769425    30A      0.778345    31A      0.806634  
      32A      0.931315    33A      0.949538    34A      0.980873  
      35A      1.011384    36A      1.078171    37A      1.111596  
      38A      1.126144    39A      1.143608    40A      1.180290  
      41A      1.188044    42A      1.219908    43A      1.246283  
      44A      1.308961    45A      1.346765    46A      1.398318  
      47A      1.646356    48A      1.706782    49A      1.820447  
      50A      1.833803    51A      1.895024    52A      2.053257  
      53A      2.068195    54A      2.112308    55A      2.231697  
      56A      2.264109    57A      2.290945    58A      2.426321  
      59A      2.449247    60A      2.641074    61A      2.663215  
      62A      2.666378    63A      2.738573    64A      2.788201  
      65A      2.959241    66A      3.049908    67A      3.265822  
      68A      3.361414    69A      4.284508    70A      4.516251  
      71A      4.665404    72A      4.885200  

    Final Occupation by Irrep:
              A 
    DOCC [    16 ]

  Energy converged.

  @DF-RHF Final Energy:  -191.95203728032089

   => Energetics <=

    Nuclear Repulsion Energy =            119.1951937822522609
    One-Electron Energy =                -496.3906802144687163
    Two-Electron Energy =                 185.2434491518955610
    DFT Exchange-Correlation Energy =       0.0000000000000000
    Empirical Dispersion Energy =           0.0000000000000000
    PCM Polarization Energy =               0.0000000000000000
    EFP Energy =                            0.0000000000000000
    Total Energy =                       -191.9520372803208943

    Alert: EFP and PCM quantities not currently incorporated into SCF psivars.

Properties will be evaluated at   0.000000,   0.000000,   0.000000 Bohr
  ==> Properties <==


Properties computed using the SCF density matrix

  Nuclear Dipole Moment: (a.u.)
     X:    -5.0136      Y:     1.6282      Z:    -0.0008

  Electronic Dipole Moment: (a.u.)
     X:     4.4159      Y:    -0.6644      Z:     0.0015

  Dipole Moment: (a.u.)
     X:    -0.5977      Y:     0.9638      Z:     0.0006     Total:     1.1341

  Dipole Moment: (Debye)
     X:    -1.5192      Y:     2.4498      Z:     0.0016     Total:     2.8826


  Saving occupied orbitals to File 180.

*** tstop() called on cx1-3-5-2.cx1.hpc.ic.ac.uk at Tue Jul  5 16:24:24 2016
Module time:
	user time   =       2.48 seconds =       0.04 minutes
	system time =       0.01 seconds =       0.00 minutes
	total time  =          3 seconds =       0.05 minutes
Total time:
	user time   =      14.66 seconds =       0.24 minutes
	system time =       0.10 seconds =       0.00 minutes
	total time  =         16 seconds =       0.27 minutes

*** tstart() called on cx1-3-5-2.cx1.hpc.ic.ac.uk
*** at Tue Jul  5 16:24:24 2016


         ------------------------------------------------------------
                                   SCF GRAD                          
                          Rob Parrish, Justin Turney,                
                       Andy Simmonett, and Alex Sokolov              
         ------------------------------------------------------------

  ==> Geometry <==

    Molecular point group: c1
    Full point group: C1

    Geometry (in Angstrom), charge = 0, multiplicity = 1:

       Center              X                  Y                   Z               Mass       
    ------------   -----------------  -----------------  -----------------  -----------------
           H          1.513081713400     1.313814765886    -0.000849073679     1.007825032070
           C          0.850166836246     0.441172987438     0.000644366726    12.000000000000
           C         -0.623424659013     0.760064337518     0.000248242564    12.000000000000
           O          1.306435900002    -0.655896634701    -0.000537863597    15.994914619560
           C         -1.518387044355    -0.473135998687    -0.000101047959    12.000000000000
           H         -0.818288818652     1.390621572407    -0.866170853066     1.007825032070
           H         -0.818693855124     1.390413244108     0.866696490136     1.007825032070
           H         -1.333416817793    -1.085530230242    -0.874338029601     1.007825032070
           H         -2.563510252746    -0.183465754583    -0.000350619564     1.007825032070
           H         -1.333863606288    -1.085675788679     0.874123386214     1.007825032070

  Nuclear repulsion =  119.195193782252261

  ==> Basis Set <==

  Basis Set: 6-31G*
    Number of shells: 36
    Number of basis function: 72
    Number of Cartesian functions: 72
    Spherical Harmonics?: false
    Max angular momentum: 2

  ==> DFJKGrad: Density-Fitted SCF Gradients <==

    Gradient:                    1
    J tasked:                  Yes
    K tasked:                  Yes
    wK tasked:                  No
    OpenMP threads:              1
    Integrals threads:           1
    Memory (MB):              1430
    Schwarz Cutoff:          0E+00
    Fitting Condition:       1E-12

   => Auxiliary Basis Set <=

  Basis Set: 
    Number of shells: 150
    Number of basis function: 474
    Number of Cartesian functions: 474
    Spherical Harmonics?: false
    Max angular momentum: 3


  -Total Gradient:
     Atom            X                  Y                   Z
    ------   -----------------  -----------------  -----------------
       1       -0.000005392701    -0.000005318828    -0.000148469299
       2        0.000001883977     0.000002934463     0.000437093458
       3       -0.000017358526     0.000006705039    -0.000131788164
       4        0.000006475451    -0.000006751112    -0.000143171402
       5       -0.000012774157    -0.000007207991     0.000000530356
       6       -0.000032879937     0.000007550541    -0.000004870514
       7        0.000029905782    -0.000016446146    -0.000003721683
       8       -0.000001847021     0.000005531408     0.000009105540
       9        0.000029606330     0.000002246375    -0.000001864660
      10        0.000002380802     0.000010756253    -0.000012843631


*** tstop() called on cx1-3-5-2.cx1.hpc.ic.ac.uk at Tue Jul  5 16:24:27 2016
Module time:
	user time   =       3.10 seconds =       0.05 minutes
	system time =       0.01 seconds =       0.00 minutes
	total time  =          3 seconds =       0.05 minutes
Total time:
	user time   =      17.76 seconds =       0.30 minutes
	system time =       0.11 seconds =       0.00 minutes
	total time  =         19 seconds =       0.32 minutes
CURRENT ENERGY: -191.9520372803

			-----------------------------------------
			 OPTKING 2.0: for geometry optimizations 
			  - R.A. King,  Bethel University        
			-----------------------------------------

	Previous internal coordinate definitions found.
	---Fragment 1 Geometry and Gradient---
	 H           2.8593100550        2.4827500969       -0.0016045167
	 C           1.6065824878        0.8336961235        0.0012176766
	 C          -1.1781018700        1.4363134413        0.0004691105
	 O           2.4688060612       -1.2394650111       -0.0010164149
	 C          -2.8693356776       -0.8940974611       -0.0001909530
	 H          -1.5463417649        2.6278939263       -1.6368256966
	 H          -1.5471071729        2.6275002429        1.6378190067
	 H          -2.5197926066       -2.0513548441       -1.6522594235
	 H          -4.8443323165       -0.3467000309       -0.0006625750
	 H          -2.5206369145       -2.0516299097        1.6518538063
	            -0.0000053927       -0.0000053188       -0.0001484693
	             0.0000018840        0.0000029345        0.0004370935
	            -0.0000173585        0.0000067050       -0.0001317882
	             0.0000064755       -0.0000067511       -0.0001431714
	            -0.0000127742       -0.0000072080        0.0000005304
	            -0.0000328799        0.0000075505       -0.0000048705
	             0.0000299058       -0.0000164461       -0.0000037217
	            -0.0000018470        0.0000055314        0.0000091055
	             0.0000296063        0.0000022464       -0.0000018647
	             0.0000023808        0.0000107563       -0.0000128436

	---Fragment 1 Intrafragment Coordinates---
	 - Coordinate -           - BOHR/RAD -       - ANG/DEG -
	 R(1,2)           =         2.070921	       1.095884
	 R(2,3)           =         2.849143	       1.507702
	 R(2,4)           =         2.245313	       1.188169
	 R(3,5)           =         2.879425	       1.523726
	 R(3,6)           =         2.058203	       1.089154
	 R(3,7)           =         2.058156	       1.089129
	 R(5,8)           =         2.047133	       1.083296
	 R(5,9)           =         2.049453	       1.084524
	 R(5,10)          =         2.047126	       1.083292
	 B(1,2,3)         =         2.007335	     115.011838
	 B(1,2,4)         =         2.097797	     120.194891
	 B(2,3,5)         =         1.985461	     113.758517
	 B(2,3,6)         =         1.872896	     107.309051
	 B(2,3,7)         =         1.872804	     107.303757
	 B(3,2,4)         =         2.178050	     124.793046
	 B(3,5,8)         =         1.936297	     110.941632
	 B(3,5,9)         =         1.928202	     110.477830
	 B(3,5,10)        =         1.936278	     110.940548
	 B(5,3,6)         =         1.942592	     111.302334
	 B(5,3,7)         =         1.942592	     111.302320
	 B(6,3,7)         =         1.839730	     105.408757
	 B(8,5,9)         =         1.891621	     108.381874
	 B(8,5,10)        =         1.878147	     107.609888
	 B(9,5,10)        =         1.891632	     108.382540
	 D(1,2,3,5)       =         3.139831	     179.899091
	 D(1,2,3,6)       =         0.983152	      56.330436
	 D(1,2,3,7)       =        -0.986742	     -56.536162
	 D(2,3,5,8)       =        -1.043358	     -59.780004
	 D(2,3,5,9)       =         3.141567	     179.998504
	 D(2,3,5,10)      =         1.043303	      59.776886
	 D(4,2,3,5)       =         0.001259	       0.072156
	 D(4,2,3,6)       =        -2.155421	    -123.496499
	 D(4,2,3,7)       =         2.157871	     123.636903
	 D(6,3,5,8)       =         1.074942	      61.589627
	 D(6,3,5,9)       =        -1.023319	     -58.631865
	 D(6,3,5,10)      =        -3.121582	    -178.853483
	 D(7,3,5,8)       =         3.121649	     178.857316
	 D(7,3,5,9)       =         1.023388	      58.635824
	 D(7,3,5,10)      =        -1.074875	     -61.585794

	Current energy   :      -191.9520372803

	Energy change for the previous step:
		Projected    :        -0.0000004973
		Actual       :         0.0000003551

	Performing BFGS update.
	Previous computed or guess Hessian on step 1.
	Steps to be used in Hessian update: 2 1
	Taking RFO optimization step.
	Going to follow RFO solution 1.
	Using RFO vector 1.
	Norm of target step-size    0.00422
	Projected energy change by RFO approximation:        -0.0000017387

	Back-transformation to cartesian coordinates...
	Successfully converged to displaced geometry.

	--- Internal Coordinate Step in ANG or DEG, aJ/ANG or AJ/DEG ---
	 ---------------------------------------------------------------------------
	   Coordinate                Previous        Force       Change         New 
	   ----------                --------       ------       ------       ------
	    1 R(1,2)          =      1.095884     0.000060    -0.000059     1.095826
	    2 R(2,3)          =      1.507702    -0.000040     0.000006     1.507707
	    3 R(2,4)          =      1.188169    -0.000073     0.000053     1.188222
	    4 R(3,5)          =      1.523726     0.000160    -0.000231     1.523495
	    5 R(3,6)          =      1.089154    -0.000116     0.000041     1.089195
	    6 R(3,7)          =      1.089129     0.000147     0.000029     1.089158
	    7 R(5,8)          =      1.083296     0.000089     0.000055     1.083352
	    8 R(5,9)          =      1.084524     0.000230     0.000013     1.084537
	    9 R(5,10)         =      1.083292     0.000132     0.000059     1.083352
	   10 B(1,2,3)        =    115.011838     0.000000    -0.008596   115.003242
	   11 B(1,2,4)        =    120.194891     0.000000     0.002746   120.197637
	   12 B(2,3,5)        =    113.758517     0.000001    -0.008189   113.750328
	   13 B(2,3,6)        =    107.309051    -0.000003    -0.004773   107.304278
	   14 B(2,3,7)        =    107.303757     0.000002     0.008314   107.312071
	   15 B(3,2,4)        =    124.793046    -0.000000     0.006072   124.799118
	   16 B(3,5,8)        =    110.941632    -0.000000     0.000330   110.941962
	   17 B(3,5,9)        =    110.477830     0.000001    -0.004017   110.473813
	   18 B(3,5,10)       =    110.940548     0.000000    -0.000265   110.940282
	   19 B(5,3,6)        =    111.302334     0.000001     0.003885   111.306219
	   20 B(5,3,7)        =    111.302320    -0.000001     0.009290   111.311611
	   21 B(6,3,7)        =    105.408757    -0.000000    -0.008901   105.399857
	   22 B(8,5,9)        =    108.381874    -0.000000     0.005269   108.387143
	   23 B(8,5,10)       =    107.609888    -0.000000    -0.006296   107.603592
	   24 B(9,5,10)       =    108.382540    -0.000001     0.005191   108.387731
	   25 D(1,2,3,5)      =    179.899091     0.000002     0.099503   179.998594
	   26 D(1,2,3,6)      =     56.330436     0.000002     0.103494    56.433930
	   27 D(1,2,3,7)      =    -56.536162     0.000002     0.112047   -56.424115
	   28 D(2,3,5,8)      =    -59.780004     0.000000     0.014113   -59.765891
	   29 D(2,3,5,9)      =    179.998504     0.000000     0.009935   180.008439
	   30 D(2,3,5,10)     =     59.776886     0.000000     0.006247    59.783132
	   31 D(4,2,3,5)      =      0.072156    -0.000002    -0.093714    -0.021558
	   32 D(4,2,3,6)      =   -123.496499    -0.000002    -0.089723  -123.586222
	   33 D(4,2,3,7)      =    123.636903    -0.000001    -0.081169   123.555733
	   34 D(6,3,5,8)      =     61.589627    -0.000000     0.004844    61.594471
	   35 D(6,3,5,9)      =    -58.631865    -0.000000     0.000666   -58.631199
	   36 D(6,3,5,10)     =   -178.853483    -0.000000    -0.003023  -178.856505
	   37 D(7,3,5,8)      =    178.857316    -0.000000     0.002151   178.859467
	   38 D(7,3,5,9)      =     58.635824    -0.000000    -0.002027    58.633797
	   39 D(7,3,5,10)     =    -61.585794    -0.000000    -0.005716   -61.591510
	 ---------------------------------------------------------------------------

  ==> Convergence Check <==

  Measures of convergence in internal coordinates in au.
  Criteria marked as inactive (o), active & met (*), and active & unmet ( ).
  ---------------------------------------------------------------------------------------------
   Step     Total Energy     Delta E     MAX Force     RMS Force      MAX Disp      RMS Disp   
  ---------------------------------------------------------------------------------------------
    Convergence Criteria    1.00e-06 *    3.00e-04 *             o    1.20e-03 *             o
  ---------------------------------------------------------------------------------------------
      3    -191.95203728    3.55e-07 *    9.49e-05 *    3.77e-05 o    1.96e-03      6.75e-04 o  ~
  ---------------------------------------------------------------------------------------------


  **** Optimization is complete! (in 3 steps) ****

  ==> Optimization Summary <==

  Measures of convergence in internal coordinates in au.
  --------------------------------------------------------------------------------------------------------------- ~
   Step         Total Energy             Delta E       MAX Force       RMS Force        MAX Disp        RMS Disp  ~
  --------------------------------------------------------------------------------------------------------------- ~
      1    -191.952035566547   -191.952035566547      0.00063032      0.00017499      0.00178340      0.00074515  ~
      2    -191.952037635378     -0.000002068831      0.00012964      0.00003431      0.00181892      0.00066036  ~
      3    -191.952037280321      0.000000355057      0.00009494      0.00003769      0.00195560      0.00067524  ~
  --------------------------------------------------------------------------------------------------------------- ~

	Writing optimization data to binary file.
	Final energy is   -191.9520372803209
	Final (previous) structure:
	Cartesian Geometry (in Angstrom)
	    H     1.5130818289   1.3138148662  -0.0008490737
	    C     0.8501669012   0.4411730211   0.0006443668
	    C    -0.6234247066   0.7600643956   0.0002482426
	    O     1.3064359998  -0.6558966848  -0.0005378636
	    C    -1.5183871603  -0.4731360348  -0.0001010480
	    H    -0.8182888811   1.3906216786  -0.8661709192
	    H    -0.8186939176   1.3904133503   0.8666965563
	    H    -1.3334169196  -1.0855303131  -0.8743380964
	    H    -2.5635104485  -0.1834657686  -0.0003506196
	    H    -1.3338637081  -1.0856758716   0.8741234530
	Saving final (previous) structure.
			--------------------------
			 OPTKING Finished Execution 
			--------------------------

    Final optimized geometry and variables:
    Molecular point group: c1
    Full point group: C1

    Geometry (in Angstrom), charge = 0, multiplicity = 1:

    H            1.513081713400     1.313814765886    -0.000849073679
    C            0.850166836246     0.441172987438     0.000644366726
    C           -0.623424659013     0.760064337518     0.000248242564
    O            1.306435900002    -0.655896634701    -0.000537863597
    C           -1.518387044355    -0.473135998687    -0.000101047959
    H           -0.818288818652     1.390621572407    -0.866170853066
    H           -0.818693855124     1.390413244108     0.866696490136
    H           -1.333416817793    -1.085530230242    -0.874338029601
    H           -2.563510252746    -0.183465754583    -0.000350619564
    H           -1.333863606288    -1.085675788679     0.874123386214

	Cleaning optimization helper files.


Properties will be evaluated at   0.000000,   0.000000,   0.000000 Bohr

Properties computed using the  density matrix

  Nuclear Dipole Moment: (a.u.)
     X:    -5.0136      Y:     1.6282      Z:    -0.0008

  Electronic Dipole Moment: (a.u.)
     X:     4.4159      Y:    -0.6644      Z:     0.0015

  Dipole Moment: (a.u.)
     X:    -0.5977      Y:     0.9638      Z:     0.0006     Total:     1.1341

  Dipole Moment: (Debye)
     X:    -1.5192      Y:     2.4498      Z:     0.0016     Total:     2.8826

  Quadrupole Moment: (Debye Ang)
    XX:   -27.2078     YY:   -25.2594     ZZ:   -24.1969
    XY:     2.7566     XZ:     0.0026     YZ:    -0.0014

  Traceless Quadrupole Moment: (Debye Ang)
    XX:    -1.6531     YY:     0.2953     ZZ:     1.3578
    XY:     2.7566     XZ:     0.0026     YZ:    -0.0014

  Mulliken Charges: (a.u.)
   Center  Symbol    Alpha    Beta     Spin     Total
       1     H     0.42829  0.42829  0.00000  0.14342
       2     C     2.83491  2.83491  0.00000  0.33018
       3     C     3.21178  3.21178  0.00000 -0.42356
       4     O     4.23659  4.23659  0.00000 -0.47318
       5     C     3.23692  3.23692  0.00000 -0.47384
       6     H     0.40724  0.40724  0.00000  0.18552
       7     H     0.40728  0.40728  0.00000  0.18545
       8     H     0.40956  0.40956  0.00000  0.18089
       9     H     0.41787  0.41787  0.00000  0.16426
      10     H     0.40958  0.40958  0.00000  0.18085

   Total alpha = 16.00000, Total beta = 16.00000, Total charge =  0.00000


*** PSI4 exiting successfully. Buy a developer a beer!
