    -----------------------------------------------------------------------
          Psi4: An Open-Source Ab Initio Electronic Structure Package
                              Psi4 (no tag) Driver

                          Git: Rev {detached?}  

    J. M. Turney, A. C. Simmonett, R. M. Parrish, E. G. Hohenstein,
    F. A. Evangelista, J. T. Fermann, B. J. Mintz, L. A. Burns, J. J. Wilke,
    M. L. Abrams, N. J. Russ, M. L. Leininger, C. L. Janssen, E. T. Seidl,
    W. D. Allen, H. F. Schaefer, R. A. King, E. F. Valeev, C. D. Sherrill,
    and T. D. Crawford, WIREs Comput. Mol. Sci. 2, 556-565 (2012)
    (doi: 10.1002/wcms.93)

                         Additional Contributions by
    A. E. DePrince, M. Saitow, U. Bozkaya, A. Yu. Sokolov
    -----------------------------------------------------------------------


    Psi4 started on: Tue Jul  5 17:17:13 2016

    Process ID:   4006
    PSI4DATADIR: /export131/home/mjharvey/miniconda3/share
    Memory level set to 256.000 MB

  ==> Input File <==

--------------------------------------------------------------------------
set {
	reference rhf
	basis 6-31G*
}


set_num_threads( 1 )
memory 2 gb

molecule MOL {
0 1

H	 -0.760699	 1.511710	 -0.147285
C	 -1.783557	 1.870562	 0.021856
C	 -2.605370	 1.031096	 0.966595
O	 -2.169449	 2.853338	 -0.523111
C	 -4.015009	 0.748661	 0.428634
H	 -2.064386	 0.113763	 1.167954
H	 -2.683145	 1.584921	 1.901413
C	 -4.902224	 1.994114	 0.357958
H	 -3.924183	 0.313745	 -0.562266
H	 -4.493322	 -0.008140	 1.048494
C	 -6.253274	 1.803461	 1.050150
H	 -5.062659	 2.258041	 -0.685331
H	 -4.386047	 2.840886	 0.806374
C	 -7.144331	 3.045428	 0.963640
H	 -6.759475	 0.950440	 0.605350
H	 -6.089580	 1.551128	 2.097010
C	 -8.476090	 2.930578	 1.714174
H	 -7.340708	 3.275648	 -0.082366
H	 -6.595566	 3.895780	 1.362978
C	 -9.441535	 1.892099	 1.140506
H	 -8.962502	 3.902772	 1.700334
H	 -8.281521	 2.704290	 2.760528
H	 -9.641833	 2.084110	 0.089658
H	 -9.050397	 0.883621	 1.223924
H	 -10.390864	 1.916855	 1.666962

	symmetry c1
}
set optking {
	frozen_dihedral = ("
		6 3 5 8,
		6 3 2 4,
		12 8 11 14,
		8 11 14 18,
		20 17 14 18
	")
}

ee = energy('scf')
oeprop('DIPOLE', 'QUADRUPOLE', 'MULLIKEN_CHARGES')
f=open( 'psi4out.xyz', 'w' )
f.write( "25  " )
f.write( str(ee) + "\n" )
f.write( MOL.save_string_xyz() )
f.close()
--------------------------------------------------------------------------

  Memory set to   2.000 GiB by Python script.

*** tstart() called on cx1-3-1-3.cx1.hpc.ic.ac.uk
*** at Tue Jul  5 17:17:13 2016


         ---------------------------------------------------------
                                   SCF
            by Justin Turney, Rob Parrish, and Andy Simmonett
                              RHF Reference
                        1 Threads,   2000 MiB Core
         ---------------------------------------------------------

  ==> Geometry <==

    Molecular point group: c1
    Full point group: C1

    Geometry (in Angstrom), charge = 0, multiplicity = 1:

       Center              X                  Y                   Z               Mass       
    ------------   -----------------  -----------------  -----------------  -----------------
           H          4.448465312883    -0.513291940658    -0.821853427866     1.007825032070
           C          3.425607312883    -0.154439940658    -0.652712427866    12.000000000000
           C          2.603794312883    -0.993905940658     0.292026572134    12.000000000000
           O          3.039715312883     0.828336059342    -1.197679427866    15.994914619560
           C          1.194155312883    -1.276340940658    -0.245934427866    12.000000000000
           H          3.144778312883    -1.911238940658     0.493385572134     1.007825032070
           H          2.526019312883    -0.440080940658     1.226844572134     1.007825032070
           C          0.306940312883    -0.030887940658    -0.316610427866    12.000000000000
           H          1.284981312883    -1.711256940658    -1.236834427866     1.007825032070
           H          0.715842312883    -2.033141940658     0.373925572134     1.007825032070
           C         -1.044109687117    -0.221540940658     0.375581572134    12.000000000000
           H          0.146505312883     0.233039059342    -1.359899427866     1.007825032070
           H          0.823117312883     0.815884059342     0.131805572134     1.007825032070
           C         -1.935166687117     1.020426059342     0.289071572134    12.000000000000
           H         -1.550310687117    -1.074561940658    -0.069218427866     1.007825032070
           H         -0.880415687117    -0.473873940658     1.422441572134     1.007825032070
           C         -3.266925687117     0.905576059342     1.039605572134    12.000000000000
           H         -2.131543687117     1.250646059342    -0.756934427866     1.007825032070
           H         -1.386401687117     1.870778059342     0.688409572134     1.007825032070
           C         -4.232370687117    -0.132902940658     0.465937572134    12.000000000000
           H         -3.753337687117     1.877770059342     1.025765572134     1.007825032070
           H         -3.072356687117     0.679288059342     2.085959572134     1.007825032070
           H         -4.432668687117     0.059108059342    -0.584910427866     1.007825032070
           H         -3.841232687117    -1.141380940658     0.549355572134     1.007825032070
           H         -5.181699687117    -0.108146940658     0.992393572134     1.007825032070

  Running in c1 symmetry.

  Rotational constants: A =      0.14827  B =      0.01698  C =      0.01604 [cm^-1]
  Rotational constants: A =   4444.94715  B =    508.92020  C =    480.95879 [MHz]
  Nuclear repulsion =  445.944057830307997

  Charge       = 0
  Multiplicity = 1
  Electrons    = 72
  Nalpha       = 36
  Nbeta        = 36

  ==> Algorithm <==

  SCF Algorithm Type is DF.
  DIIS enabled.
  MOM disabled.
  Fractional occupation disabled.
  Guess Type is CORE.
  Energy threshold   = 1.00e-06
  Density threshold  = 1.00e-06
  Integral threshold = 0.00e+00

  ==> Primary Basis <==

  Basis Set: 6-31G*
    Number of shells: 86
    Number of basis function: 167
    Number of Cartesian functions: 167
    Spherical Harmonics?: false
    Max angular momentum: 2

  ==> Pre-Iterations <==

   -------------------------------------------------------
    Irrep   Nso     Nmo     Nalpha   Nbeta   Ndocc  Nsocc
   -------------------------------------------------------
     A        167     167       0       0       0       0
   -------------------------------------------------------
    Total     167     167      36      36      36       0
   -------------------------------------------------------

 OEINTS: Overlap, kinetic, potential, dipole, and quadrupole integrals
         stored in file 35.

  ==> Integral Setup <==

  ==> DFJK: Density-Fitted J/K Matrices <==

    J tasked:                  Yes
    K tasked:                  Yes
    wK tasked:                  No
    OpenMP threads:              1
    Integrals threads:           1
    Memory (MB):              1430
    Algorithm:                Core
    Integral Cache:           NONE
    Schwarz Cutoff:          1E-12
    Fitting Condition:       1E-12

   => Auxiliary Basis Set <=

  Basis Set: 
    Number of shells: 360
    Number of basis function: 1129
    Number of Cartesian functions: 1129
    Spherical Harmonics?: false
    Max angular momentum: 3

  Minimum eigenvalue in the overlap matrix is 3.2660628121E-03.
  Using Symmetric Orthogonalization.
  SCF Guess: Core (One-Electron) Hamiltonian.

  ==> Iterations <==

                           Total Energy        Delta E     RMS |[F,P]|

   @DF-RHF iter   1:  -289.79888980555950   -2.89799e+02   5.85169e-02 
   @DF-RHF iter   2:   -29.61318426760891    2.60186e+02   7.49246e-02 DIIS
   @DF-RHF iter   3:  -264.17811067566208   -2.34565e+02   4.59916e-02 DIIS
   @DF-RHF iter   4:  -215.23269880097405    4.89454e+01   6.34748e-02 DIIS
   @DF-RHF iter   5:  -363.31976118442697   -1.48087e+02   2.46553e-02 DIIS
   @DF-RHF iter   6:  -363.58399504125532   -2.64234e-01   2.90346e-02 DIIS
   @DF-RHF iter   7:  -384.63777501650668   -2.10538e+01   8.28361e-03 DIIS
   @DF-RHF iter   8:  -386.84423175001609   -2.20646e+00   4.21220e-03 DIIS
   @DF-RHF iter   9:  -387.08578121508606   -2.41549e-01   1.16965e-03 DIIS
   @DF-RHF iter  10:  -387.10941558936088   -2.36344e-02   4.24296e-04 DIIS
   @DF-RHF iter  11:  -387.11324661108267   -3.83102e-03   1.24352e-04 DIIS
   @DF-RHF iter  12:  -387.11355100438777   -3.04393e-04   4.87095e-05 DIIS
   @DF-RHF iter  13:  -387.11361989107968   -6.88867e-05   2.76197e-05 DIIS
   @DF-RHF iter  14:  -387.11363281998649   -1.29289e-05   1.39433e-05 DIIS
   @DF-RHF iter  15:  -387.11363695065484   -4.13067e-06   4.99892e-06 DIIS
   @DF-RHF iter  16:  -387.11363746548341   -5.14829e-07   1.28805e-06 DIIS
   @DF-RHF iter  17:  -387.11363750575845   -4.02750e-08   3.81908e-07 DIIS

  ==> Post-Iterations <==

    Orbital Energies (a.u.)
    -----------------------

    Doubly Occupied:                                                      

       1A    -20.563861     2A    -11.328539     3A    -11.235773  
       4A    -11.226311     5A    -11.212807     6A    -11.210987  
       7A    -11.209780     8A    -11.208199     9A    -11.206298  
      10A     -1.405112    11A     -1.095012    12A     -1.063608  
      13A     -1.008102    14A     -0.940103    15A     -0.874082  
      16A     -0.811881    17A     -0.776860    18A     -0.773446  
      19A     -0.679557    20A     -0.652578    21A     -0.632862  
      22A     -0.609086    23A     -0.607054    24A     -0.584785  
      25A     -0.560149    26A     -0.553600    27A     -0.540630  
      28A     -0.509982    29A     -0.504909    30A     -0.498647  
      31A     -0.482296    32A     -0.466393    33A     -0.454767  
      34A     -0.451693    35A     -0.437345    36A     -0.404470  

    Virtual:                                                              

      37A      0.153371    38A      0.231280    39A      0.243196  
      40A      0.261513    41A      0.266727    42A      0.274867  
      43A      0.287717    44A      0.291338    45A      0.310368  
      46A      0.314762    47A      0.327871    48A      0.334342  
      49A      0.338438    50A      0.341418    51A      0.355998  
      52A      0.364046    53A      0.383757    54A      0.404722  
      55A      0.426274    56A      0.436122    57A      0.449283  
      58A      0.453760    59A      0.464650    60A      0.487963  
      61A      0.500666    62A      0.707410    63A      0.715747  
      64A      0.728774    65A      0.737497    66A      0.744934  
      67A      0.765123    68A      0.779551    69A      0.796536  
      70A      0.825489    71A      0.849057    72A      0.859597  
      73A      0.887696    74A      0.915209    75A      0.942073  
      76A      0.957923    77A      0.965021    78A      0.975032  
      79A      0.989594    80A      1.029093    81A      1.034672  
      82A      1.090298    83A      1.097636    84A      1.109912  
      85A      1.117686    86A      1.130305    87A      1.133454  
      88A      1.147031    89A      1.151556    90A      1.161774  
      91A      1.169249    92A      1.183008    93A      1.191842  
      94A      1.201986    95A      1.204756    96A      1.225584  
      97A      1.232679    98A      1.248981    99A      1.255950  
     100A      1.261370   101A      1.269575   102A      1.292668  
     103A      1.328761   104A      1.389093   105A      1.432064  
     106A      1.440893   107A      1.504202   108A      1.589348  
     109A      1.657170   110A      1.703422   111A      1.710278  
     112A      1.762846   113A      1.801449   114A      1.805970  
     115A      1.849507   116A      1.879598   117A      1.947216  
     118A      1.960351   119A      1.976368   120A      2.027037  
     121A      2.069372   122A      2.110038   123A      2.140434  
     124A      2.147220   125A      2.193837   126A      2.212522  
     127A      2.227048   128A      2.262709   129A      2.282414  
     130A      2.309363   131A      2.312172   132A      2.335166  
     133A      2.352612   134A      2.392632   135A      2.419787  
     136A      2.437239   137A      2.492402   138A      2.559086  
     139A      2.599272   140A      2.626852   141A      2.643329  
     142A      2.686814   143A      2.695304   144A      2.713131  
     145A      2.746249   146A      2.774686   147A      2.803605  
     148A      2.817918   149A      2.866359   150A      2.936562  
     151A      2.963619   152A      2.985610   153A      3.000214  
     154A      3.078333   155A      3.139436   156A      3.185605  
     157A      3.264087   158A      3.370192   159A      4.324432  
     160A      4.514852   161A      4.566081   162A      4.646340  
     163A      4.731298   164A      4.818733   165A      4.886996  
     166A      4.937680   167A      5.019022  

    Final Occupation by Irrep:
              A 
    DOCC [    36 ]

  Energy converged.

  @DF-RHF Final Energy:  -387.11363750575845

   => Energetics <=

    Nuclear Repulsion Energy =            445.9440578303079974
    One-Electron Energy =               -1408.5523014017230707
    Two-Electron Energy =                 575.4946060656577629
    DFT Exchange-Correlation Energy =       0.0000000000000000
    Empirical Dispersion Energy =           0.0000000000000000
    PCM Polarization Energy =               0.0000000000000000
    EFP Energy =                            0.0000000000000000
    Total Energy =                       -387.1136375057573105

    Alert: EFP and PCM quantities not currently incorporated into SCF psivars.

Properties will be evaluated at   0.000000,   0.000000,   0.000000 Bohr
  ==> Properties <==


Properties computed using the SCF density matrix

  Nuclear Dipole Moment: (a.u.)
     X:   -12.3040      Y:    -2.4526      Z:     3.8947

  Electronic Dipole Moment: (a.u.)
     X:    12.4757      Y:     1.5915      Z:    -3.3433

  Dipole Moment: (a.u.)
     X:     0.1718      Y:    -0.8612      Z:     0.5514     Total:     1.0369

  Dipole Moment: (Debye)
     X:     0.4366      Y:    -2.1889      Z:     1.4016     Total:     2.6356


  Saving occupied orbitals to File 180.

*** tstop() called on cx1-3-1-3.cx1.hpc.ic.ac.uk at Tue Jul  5 17:17:40 2016
Module time:
	user time   =      25.74 seconds =       0.43 minutes
	system time =       0.22 seconds =       0.00 minutes
	total time  =         27 seconds =       0.45 minutes
Total time:
	user time   =      25.74 seconds =       0.43 minutes
	system time =       0.22 seconds =       0.00 minutes
	total time  =         27 seconds =       0.45 minutes


Properties will be evaluated at   0.000000,   0.000000,   0.000000 Bohr

Properties computed using the  density matrix

  Nuclear Dipole Moment: (a.u.)
     X:   -12.3040      Y:    -2.4526      Z:     3.8947

  Electronic Dipole Moment: (a.u.)
     X:    12.4757      Y:     1.5915      Z:    -3.3433

  Dipole Moment: (a.u.)
     X:     0.1718      Y:    -0.8612      Z:     0.5514     Total:     1.0369

  Dipole Moment: (Debye)
     X:     0.4366      Y:    -2.1889      Z:     1.4016     Total:     2.6356

  Quadrupole Moment: (Debye Ang)
    XX:   -55.8840     YY:   -59.9438     ZZ:   -60.1806
    XY:    -7.3146     XZ:     4.2581     YZ:     2.8148

  Traceless Quadrupole Moment: (Debye Ang)
    XX:     2.7855     YY:    -1.2744     ZZ:    -1.5112
    XY:    -7.3146     XZ:     4.2581     YZ:     2.8148

  Mulliken Charges: (a.u.)
   Center  Symbol    Alpha    Beta     Spin     Total
       1     H     0.42762  0.42762  0.00000  0.14476
       2     C     2.84188  2.84188  0.00000  0.31624
       3     C     3.20756  3.20756  0.00000 -0.41512
       4     O     4.23519  4.23519  0.00000 -0.47039
       5     C     3.15940  3.15940  0.00000 -0.31879
       6     H     0.41338  0.41338  0.00000  0.17324
       7     H     0.40168  0.40168  0.00000  0.19663
       8     C     3.14984  3.14984  0.00000 -0.29967
       9     H     0.41599  0.41599  0.00000  0.16802
      10     H     0.41458  0.41458  0.00000  0.17083
      11     C     3.15813  3.15813  0.00000 -0.31626
      12     H     0.41462  0.41462  0.00000  0.17075
      13     H     0.41226  0.41226  0.00000  0.17548
      14     C     3.15277  3.15277  0.00000 -0.30554
      15     H     0.42279  0.42279  0.00000  0.15442
      16     H     0.42685  0.42685  0.00000  0.14630
      17     C     3.15218  3.15218  0.00000 -0.30436
      18     H     0.42306  0.42306  0.00000  0.15388
      19     H     0.42124  0.42124  0.00000  0.15753
      20     C     3.24088  3.24088  0.00000 -0.48175
      21     H     0.42107  0.42107  0.00000  0.15786
      22     H     0.42431  0.42431  0.00000  0.15138
      23     H     0.42213  0.42213  0.00000  0.15574
      24     H     0.42077  0.42077  0.00000  0.15846
      25     H     0.41982  0.41982  0.00000  0.16036

   Total alpha = 36.00000, Total beta = 36.00000, Total charge =  0.00000


*** PSI4 exiting successfully. Buy a developer a beer!
