    -----------------------------------------------------------------------
          Psi4: An Open-Source Ab Initio Electronic Structure Package
                              Psi4 (no tag) Driver

                          Git: Rev {detached?}  

    J. M. Turney, A. C. Simmonett, R. M. Parrish, E. G. Hohenstein,
    F. A. Evangelista, J. T. Fermann, B. J. Mintz, L. A. Burns, J. J. Wilke,
    M. L. Abrams, N. J. Russ, M. L. Leininger, C. L. Janssen, E. T. Seidl,
    W. D. Allen, H. F. Schaefer, R. A. King, E. F. Valeev, C. D. Sherrill,
    and T. D. Crawford, WIREs Comput. Mol. Sci. 2, 556-565 (2012)
    (doi: 10.1002/wcms.93)

                         Additional Contributions by
    A. E. DePrince, M. Saitow, U. Bozkaya, A. Yu. Sokolov
    -----------------------------------------------------------------------


    Psi4 started on: Tue Jul  5 16:31:32 2016

    Process ID:  27799
    PSI4DATADIR: /export131/home/mjharvey/miniconda3/share
    Memory level set to 256.000 MB

  ==> Input File <==

--------------------------------------------------------------------------
set {
	reference rhf
	basis 6-31G*
}


set_num_threads( 1 )
memory 2 gb

molecule MOL {
0 1

H	 -0.314752	 3.001425	 -0.790005
C	 0.411227	 2.338203	 -0.303388
C	 0.065331	 0.871482	 -0.349150
O	 1.385684	 2.789984	 0.204596
C	 -1.409105	 0.628103	 -0.701691
H	 0.322622	 0.429469	 0.606539
H	 0.696372	 0.415257	 -1.110601
C	 -1.726229	 -0.838748	 -0.995293
H	 -1.660441	 1.232972	 -1.567124
H	 -2.038598	 0.984963	 0.110731
H	 -1.132749	 -1.205417	 -1.827075
H	 -2.773111	 -0.963509	 -1.251789
H	 -1.518504	 -1.474762	 -0.139883

	symmetry c1
}
set optking {
	frozen_dihedral = ("
		6 3 5 9
	")
}

ee = energy('scf')
oeprop('DIPOLE', 'QUADRUPOLE', 'MULLIKEN_CHARGES')
f=open( 'psi4out.xyz', 'w' )
f.write( "13  " )
f.write( str(ee) + "\n" )
f.write( MOL.save_string_xyz() )
f.close()
--------------------------------------------------------------------------

  Memory set to   2.000 GiB by Python script.

*** tstart() called on cx1-3-1-3.cx1.hpc.ic.ac.uk
*** at Tue Jul  5 16:31:33 2016


         ---------------------------------------------------------
                                   SCF
            by Justin Turney, Rob Parrish, and Andy Simmonett
                              RHF Reference
                        1 Threads,   2000 MiB Core
         ---------------------------------------------------------

  ==> Geometry <==

    Molecular point group: c1
    Full point group: C1

    Geometry (in Angstrom), charge = 0, multiplicity = 1:

       Center              X                  Y                   Z               Mass       
    ------------   -----------------  -----------------  -----------------  -----------------
           H         -0.061808834163     1.848826638751    -0.360657905004     1.007825032070
           C          0.664170165837     1.185604638751     0.125959094996    12.000000000000
           C          0.318274165837    -0.281116361249     0.080197094996    12.000000000000
           O          1.638627165837     1.637385638751     0.633943094996    15.994914619560
           C         -1.156161834163    -0.524495361249    -0.272343905004    12.000000000000
           H          0.575565165837    -0.723129361249     1.035886094996     1.007825032070
           H          0.949315165837    -0.737341361249    -0.681253905004     1.007825032070
           C         -1.473285834163    -1.991346361249    -0.565945905004    12.000000000000
           H         -1.407497834163     0.080373638751    -1.137776905004     1.007825032070
           H         -1.785654834163    -0.167635361249     0.540078094996     1.007825032070
           H         -0.879805834163    -2.358015361249    -1.397727905004     1.007825032070
           H         -2.520167834163    -2.116107361249    -0.822441905004     1.007825032070
           H         -1.265560834163    -2.627360361249     0.289464094996     1.007825032070

  Running in c1 symmetry.

  Rotational constants: A =      0.79184  B =      0.06985  C =      0.06682 [cm^-1]
  Rotational constants: A =  23738.91040  B =   2094.05257  C =   2003.27131 [MHz]
  Nuclear repulsion =  169.840464525860114

  Charge       = 0
  Multiplicity = 1
  Electrons    = 40
  Nalpha       = 20
  Nbeta        = 20

  ==> Algorithm <==

  SCF Algorithm Type is DF.
  DIIS enabled.
  MOM disabled.
  Fractional occupation disabled.
  Guess Type is CORE.
  Energy threshold   = 1.00e-06
  Density threshold  = 1.00e-06
  Integral threshold = 0.00e+00

  ==> Primary Basis <==

  Basis Set: 6-31G*
    Number of shells: 46
    Number of basis function: 91
    Number of Cartesian functions: 91
    Spherical Harmonics?: false
    Max angular momentum: 2

  ==> Pre-Iterations <==

   -------------------------------------------------------
    Irrep   Nso     Nmo     Nalpha   Nbeta   Ndocc  Nsocc
   -------------------------------------------------------
     A         91      91       0       0       0       0
   -------------------------------------------------------
    Total      91      91      20      20      20       0
   -------------------------------------------------------

 OEINTS: Overlap, kinetic, potential, dipole, and quadrupole integrals
         stored in file 35.

  ==> Integral Setup <==

  ==> DFJK: Density-Fitted J/K Matrices <==

    J tasked:                  Yes
    K tasked:                  Yes
    wK tasked:                  No
    OpenMP threads:              1
    Integrals threads:           1
    Memory (MB):              1430
    Algorithm:                Core
    Integral Cache:           NONE
    Schwarz Cutoff:          1E-12
    Fitting Condition:       1E-12

   => Auxiliary Basis Set <=

  Basis Set: 
    Number of shells: 192
    Number of basis function: 605
    Number of Cartesian functions: 605
    Spherical Harmonics?: false
    Max angular momentum: 3

  Minimum eigenvalue in the overlap matrix is 3.8298384137E-03.
  Using Symmetric Orthogonalization.
  SCF Guess: Core (One-Electron) Hamiltonian.

  ==> Iterations <==

                           Total Energy        Delta E     RMS |[F,P]|

   @DF-RHF iter   1:  -179.07106010413293   -1.79071e+02   7.94667e-02 
   @DF-RHF iter   2:  -117.55923364634469    6.15118e+01   9.76040e-02 DIIS
   @DF-RHF iter   3:  -215.17894817000729   -9.76197e+01   3.19727e-02 DIIS
   @DF-RHF iter   4:  -171.35673124859392    4.38222e+01   8.09297e-02 DIIS
   @DF-RHF iter   5:  -200.48792467170847   -2.91312e+01   5.50544e-02 DIIS
   @DF-RHF iter   6:  -213.92608847947668   -1.34382e+01   4.14373e-02 DIIS
   @DF-RHF iter   7:  -227.73230790221731   -1.38062e+01   2.04167e-02 DIIS
   @DF-RHF iter   8:  -228.80514819697140   -1.07284e+00   1.33912e-02 DIIS
   @DF-RHF iter   9:  -230.79353474446424   -1.98839e+00   7.24653e-03 DIIS
   @DF-RHF iter  10:  -230.96990712183310   -1.76372e-01   1.28104e-03 DIIS
   @DF-RHF iter  11:  -230.98020652810050   -1.02994e-02   6.18333e-04 DIIS
   @DF-RHF iter  12:  -230.98286559762346   -2.65907e-03   2.55345e-04 DIIS
   @DF-RHF iter  13:  -230.98350411951100   -6.38522e-04   9.42806e-05 DIIS
   @DF-RHF iter  14:  -230.98362157292200   -1.17453e-04   2.68858e-05 DIIS
   @DF-RHF iter  15:  -230.98363058131434   -9.00839e-06   1.16900e-05 DIIS
   @DF-RHF iter  16:  -230.98363119688372   -6.15569e-07   3.84291e-06 DIIS
   @DF-RHF iter  17:  -230.98363127634565   -7.94619e-08   7.59799e-07 DIIS

  ==> Post-Iterations <==

    Orbital Energies (a.u.)
    -----------------------

    Doubly Occupied:                                                      

       1A    -20.562472     2A    -11.327908     3A    -11.237822  
       4A    -11.236540     5A    -11.224370     6A     -1.402794  
       7A     -1.087341     8A     -0.976489     9A     -0.838130  
      10A     -0.798479    11A     -0.666419    12A     -0.649472  
      13A     -0.635707    14A     -0.580252    15A     -0.572770  
      16A     -0.520949    17A     -0.514244    18A     -0.493668  
      19A     -0.483432    20A     -0.411218  

    Virtual:                                                              

      21A      0.156087    22A      0.224200    23A      0.261683  
      24A      0.278364    25A      0.281717    26A      0.312818  
      27A      0.323601    28A      0.332012    29A      0.350092  
      30A      0.377752    31A      0.424647    32A      0.466239  
      33A      0.480386    34A      0.715113    35A      0.735073  
      36A      0.742636    37A      0.752829    38A      0.773399  
      39A      0.846855    40A      0.895410    41A      0.928200  
      42A      0.934557    43A      0.990117    44A      1.042852  
      45A      1.061284    46A      1.081622    47A      1.111630  
      48A      1.131963    49A      1.162773    50A      1.166486  
      51A      1.188634    52A      1.203609    53A      1.212884  
      54A      1.247262    55A      1.268212    56A      1.300369  
      57A      1.356331    58A      1.382230    59A      1.612947  
      60A      1.641674    61A      1.733293    62A      1.805371  
      63A      1.834968    64A      1.915376    65A      2.021907  
      66A      2.038232    67A      2.099748    68A      2.142901  
      69A      2.157431    70A      2.264607    71A      2.271779  
      72A      2.300302    73A      2.364517    74A      2.432211  
      75A      2.488716    76A      2.565675    77A      2.652730  
      78A      2.685785    79A      2.687929    80A      2.756546  
      81A      2.891702    82A      2.946895    83A      2.979818  
      84A      3.052784    85A      3.287420    86A      3.381221  
      87A      4.310815    88A      4.523319    89A      4.622627  
      90A      4.775710    91A      4.932532  

    Final Occupation by Irrep:
              A 
    DOCC [    20 ]

  Energy converged.

  @DF-RHF Final Energy:  -230.98363127634565

   => Energetics <=

    Nuclear Repulsion Energy =            169.8404645258601136
    One-Electron Energy =                -649.2070523987142678
    Two-Electron Energy =                 248.3829565965081656
    DFT Exchange-Correlation Energy =       0.0000000000000000
    Empirical Dispersion Energy =           0.0000000000000000
    PCM Polarization Energy =               0.0000000000000000
    EFP Energy =                            0.0000000000000000
    Total Energy =                       -230.9836312763459887

    Alert: EFP and PCM quantities not currently incorporated into SCF psivars.

Properties will be evaluated at   0.000000,   0.000000,   0.000000 Bohr
  ==> Properties <==


Properties computed using the SCF density matrix

  Nuclear Dipole Moment: (a.u.)
     X:    -5.9878      Y:    -6.3673      Z:    -2.3729

  Electronic Dipole Moment: (a.u.)
     X:     5.0461      Y:     5.7077      Z:     1.9099

  Dipole Moment: (a.u.)
     X:    -0.9417      Y:    -0.6596      Z:    -0.4630     Total:     1.2395

  Dipole Moment: (Debye)
     X:    -2.3936      Y:    -1.6766      Z:    -1.1769     Total:     3.1505


  Saving occupied orbitals to File 180.

*** tstop() called on cx1-3-1-3.cx1.hpc.ic.ac.uk at Tue Jul  5 16:31:37 2016
Module time:
	user time   =       4.17 seconds =       0.07 minutes
	system time =       0.03 seconds =       0.00 minutes
	total time  =          4 seconds =       0.07 minutes
Total time:
	user time   =       4.17 seconds =       0.07 minutes
	system time =       0.03 seconds =       0.00 minutes
	total time  =          4 seconds =       0.07 minutes


Properties will be evaluated at   0.000000,   0.000000,   0.000000 Bohr

Properties computed using the  density matrix

  Nuclear Dipole Moment: (a.u.)
     X:    -5.9878      Y:    -6.3673      Z:    -2.3729

  Electronic Dipole Moment: (a.u.)
     X:     5.0461      Y:     5.7077      Z:     1.9099

  Dipole Moment: (a.u.)
     X:    -0.9417      Y:    -0.6596      Z:    -0.4630     Total:     1.2395

  Dipole Moment: (Debye)
     X:    -2.3936      Y:    -1.6766      Z:    -1.1769     Total:     3.1505

  Quadrupole Moment: (Debye Ang)
    XX:   -36.5416     YY:   -34.9385     ZZ:   -31.6828
    XY:    -4.7120     XZ:    -2.4528     YZ:    -2.2004

  Traceless Quadrupole Moment: (Debye Ang)
    XX:    -2.1539     YY:    -0.5509     ZZ:     2.7049
    XY:    -4.7120     XZ:    -2.4528     YZ:    -2.2004

  Mulliken Charges: (a.u.)
   Center  Symbol    Alpha    Beta     Spin     Total
       1     H     0.43067  0.43067  0.00000  0.13866
       2     C     2.83309  2.83309  0.00000  0.33382
       3     C     3.20565  3.20565  0.00000 -0.41129
       4     O     4.24013  4.24013  0.00000 -0.48027
       5     C     3.16602  3.16602  0.00000 -0.33205
       6     H     0.39776  0.39776  0.00000  0.20448
       7     H     0.40154  0.40154  0.00000  0.19693
       8     C     3.23968  3.23968  0.00000 -0.47935
       9     H     0.41873  0.41873  0.00000  0.16253
      10     H     0.41546  0.41546  0.00000  0.16907
      11     H     0.41891  0.41891  0.00000  0.16218
      12     H     0.41489  0.41489  0.00000  0.17022
      13     H     0.41747  0.41747  0.00000  0.16506

   Total alpha = 20.00000, Total beta = 20.00000, Total charge = -0.00000


*** PSI4 exiting successfully. Buy a developer a beer!
