    -----------------------------------------------------------------------
          Psi4: An Open-Source Ab Initio Electronic Structure Package
                              Psi4 (no tag) Driver

                          Git: Rev {detached?}  

    J. M. Turney, A. C. Simmonett, R. M. Parrish, E. G. Hohenstein,
    F. A. Evangelista, J. T. Fermann, B. J. Mintz, L. A. Burns, J. J. Wilke,
    M. L. Abrams, N. J. Russ, M. L. Leininger, C. L. Janssen, E. T. Seidl,
    W. D. Allen, H. F. Schaefer, R. A. King, E. F. Valeev, C. D. Sherrill,
    and T. D. Crawford, WIREs Comput. Mol. Sci. 2, 556-565 (2012)
    (doi: 10.1002/wcms.93)

                         Additional Contributions by
    A. E. DePrince, M. Saitow, U. Bozkaya, A. Yu. Sokolov
    -----------------------------------------------------------------------


    Psi4 started on: Tue Jul  5 16:29:44 2016

    Process ID:  11444
    PSI4DATADIR: /export131/home/mjharvey/miniconda3/share
    Memory level set to 256.000 MB

  ==> Input File <==

--------------------------------------------------------------------------
set {
	reference rhf
	basis 6-31G*
}


set_num_threads( 1 )
memory 2 gb

molecule MOL {
0 1

H	 -0.347785	 1.726309	 -1.474418
C	 0.557503	 1.679937	 -0.867300
N	 0.538815	 0.649616	 0.000000
O	 1.442579	 2.474161	 -0.990006
C	 1.521968	 -0.411503	 0.000000
H	 -0.192644	 0.624219	 0.672761
H	 2.150599	 -0.357004	 -0.881901
H	 0.999455	 -1.354525	 0.000000
H	 2.150599	 -0.357004	 0.881901

	symmetry c1
}
set optking {
	frozen_dihedral = ("
		6 3 5 7
	")
}

ee = energy('scf')
oeprop('DIPOLE', 'QUADRUPOLE', 'MULLIKEN_CHARGES')
f=open( 'psi4out.xyz', 'w' )
f.write( "9  " )
f.write( str(ee) + "\n" )
f.write( MOL.save_string_xyz() )
f.close()
--------------------------------------------------------------------------

  Memory set to   2.000 GiB by Python script.

*** tstart() called on cx1-1-4-3.cx1.hpc.ic.ac.uk
*** at Tue Jul  5 16:29:45 2016


         ---------------------------------------------------------
                                   SCF
            by Justin Turney, Rob Parrish, and Andy Simmonett
                              RHF Reference
                        1 Threads,   2000 MiB Core
         ---------------------------------------------------------

  ==> Geometry <==

    Molecular point group: c1
    Full point group: C1

    Geometry (in Angstrom), charge = 0, multiplicity = 1:

       Center              X                  Y                   Z               Mass       
    ------------   -----------------  -----------------  -----------------  -----------------
           H         -1.370364108160     0.639263574190    -1.016221626559     1.007825032070
           C         -0.465076108160     0.592891574190    -0.409103626559    12.000000000000
           N         -0.483764108160    -0.437429425810     0.458196373441    14.003074004780
           O          0.419999891840     1.387115574190    -0.531809626559    15.994914619560
           C          0.499388891840    -1.498548425810     0.458196373441    12.000000000000
           H         -1.215223108160    -0.462826425810     1.130957373441     1.007825032070
           H          1.128019891840    -1.444049425810    -0.423704626559     1.007825032070
           H         -0.023124108160    -2.441570425810     0.458196373441     1.007825032070
           H          1.128019891840    -1.444049425810     1.340097373441     1.007825032070

  Running in c1 symmetry.

  Rotational constants: A =      0.77094  B =      0.18354  C =      0.15975 [cm^-1]
  Rotational constants: A =  23112.32551  B =   5502.52471  C =   4789.32574 [MHz]
  Nuclear repulsion =  121.614059092188512

  Charge       = 0
  Multiplicity = 1
  Electrons    = 32
  Nalpha       = 16
  Nbeta        = 16

  ==> Algorithm <==

  SCF Algorithm Type is DF.
  DIIS enabled.
  MOM disabled.
  Fractional occupation disabled.
  Guess Type is CORE.
  Energy threshold   = 1.00e-06
  Density threshold  = 1.00e-06
  Integral threshold = 0.00e+00

  ==> Primary Basis <==

  Basis Set: 6-31G*
    Number of shells: 34
    Number of basis function: 70
    Number of Cartesian functions: 70
    Spherical Harmonics?: false
    Max angular momentum: 2

  ==> Pre-Iterations <==

   -------------------------------------------------------
    Irrep   Nso     Nmo     Nalpha   Nbeta   Ndocc  Nsocc
   -------------------------------------------------------
     A         70      70       0       0       0       0
   -------------------------------------------------------
    Total      70      70      16      16      16       0
   -------------------------------------------------------

 OEINTS: Overlap, kinetic, potential, dipole, and quadrupole integrals
         stored in file 35.

  ==> Integral Setup <==

  ==> DFJK: Density-Fitted J/K Matrices <==

    J tasked:                  Yes
    K tasked:                  Yes
    wK tasked:                  No
    OpenMP threads:              1
    Integrals threads:           1
    Memory (MB):              1430
    Algorithm:                Core
    Integral Cache:           NONE
    Schwarz Cutoff:          1E-12
    Fitting Condition:       1E-12

   => Auxiliary Basis Set <=

  Basis Set: 
    Number of shells: 141
    Number of basis function: 449
    Number of Cartesian functions: 449
    Spherical Harmonics?: false
    Max angular momentum: 3

  Minimum eigenvalue in the overlap matrix is 5.0406146340E-03.
  Using Symmetric Orthogonalization.
  SCF Guess: Core (One-Electron) Hamiltonian.

  ==> Iterations <==

                           Total Energy        Delta E     RMS |[F,P]|

   @DF-RHF iter   1:  -166.70494828888243   -1.66705e+02   9.42281e-02 
   @DF-RHF iter   2:  -129.56116240043289    3.71438e+01   8.26167e-02 DIIS
   @DF-RHF iter   3:  -189.81555233613304   -6.02544e+01   5.44269e-02 DIIS
   @DF-RHF iter   4:  -207.25179778550384   -1.74362e+01   1.72982e-02 DIIS
   @DF-RHF iter   5:  -207.86763681548157   -6.15839e-01   5.21048e-03 DIIS
   @DF-RHF iter   6:  -207.92447704887852   -5.68402e-02   1.03583e-03 DIIS
   @DF-RHF iter   7:  -207.92764240623237   -3.16536e-03   4.30927e-04 DIIS
   @DF-RHF iter   8:  -207.92827190991798   -6.29504e-04   1.92940e-04 DIIS
   @DF-RHF iter   9:  -207.92839885639287   -1.26946e-04   6.68654e-05 DIIS
   @DF-RHF iter  10:  -207.92841555937432   -1.67030e-05   1.81631e-05 DIIS
   @DF-RHF iter  11:  -207.92841688009017   -1.32072e-06   9.05135e-06 DIIS
   @DF-RHF iter  12:  -207.92841714448664   -2.64396e-07   3.07095e-06 DIIS
   @DF-RHF iter  13:  -207.92841722065796   -7.61713e-08   1.19104e-06 DIIS
   @DF-RHF iter  14:  -207.92841723548938   -1.48314e-08   2.44291e-07 DIIS

  ==> Post-Iterations <==

    Orbital Energies (a.u.)
    -----------------------

    Doubly Occupied:                                                      

       1A    -20.549763     2A    -15.562726     3A    -11.346697  
       4A    -11.263720     5A     -1.399393     6A     -1.228438  
       7A     -0.962293     8A     -0.812775     9A     -0.731785  
      10A     -0.650052    11A     -0.641280    12A     -0.596360  
      13A     -0.561699    14A     -0.514198    15A     -0.434168  
      16A     -0.379889  

    Virtual:                                                              

      17A      0.170332    18A      0.234522    19A      0.270736  
      20A      0.285948    21A      0.317216    22A      0.321500  
      23A      0.384375    24A      0.453088    25A      0.584778  
      26A      0.712953    27A      0.730034    28A      0.779050  
      29A      0.791783    30A      0.884954    31A      0.958452  
      32A      0.989181    33A      1.030902    34A      1.058983  
      35A      1.117041    36A      1.126091    37A      1.140895  
      38A      1.183051    39A      1.209662    40A      1.221813  
      41A      1.278135    42A      1.312867    43A      1.322334  
      44A      1.405236    45A      1.546776    46A      1.689096  
      47A      1.816311    48A      1.838981    49A      1.934962  
      50A      2.024264    51A      2.141581    52A      2.171404  
      53A      2.256190    54A      2.287626    55A      2.350944  
      56A      2.427524    57A      2.484786    58A      2.604849  
      59A      2.647476    60A      2.772879    61A      2.852221  
      62A      2.930030    63A      3.042522    64A      3.161101  
      65A      3.317706    66A      3.425985    67A      4.261570  
      68A      4.340514    69A      4.590741    70A      4.712721  

    Final Occupation by Irrep:
              A 
    DOCC [    16 ]

  Energy converged.

  @DF-RHF Final Energy:  -207.92841723548938

   => Energetics <=

    Nuclear Repulsion Energy =            121.6140590921885121
    One-Electron Energy =                -523.8144891309256082
    Two-Electron Energy =                 194.2720128032480034
    DFT Exchange-Correlation Energy =       0.0000000000000000
    Empirical Dispersion Energy =           0.0000000000000000
    PCM Polarization Energy =               0.0000000000000000
    EFP Energy =                            0.0000000000000000
    Total Energy =                       -207.9284172354890643

    Alert: EFP and PCM quantities not currently incorporated into SCF psivars.

Properties will be evaluated at   0.000000,   0.000000,   0.000000 Bohr
  ==> Properties <==


Properties computed using the SCF density matrix

  Nuclear Dipole Moment: (a.u.)
     X:    -0.3272      Y:    -4.8231      Z:     1.3923

  Electronic Dipole Moment: (a.u.)
     X:    -0.4765      Y:     3.7192      Z:    -1.0059

  Dipole Moment: (a.u.)
     X:    -0.8037      Y:    -1.1038      Z:     0.3864     Total:     1.4191

  Dipole Moment: (Debye)
     X:    -2.0428      Y:    -2.8057      Z:     0.9822     Total:     3.6069


  Saving occupied orbitals to File 180.

*** tstop() called on cx1-1-4-3.cx1.hpc.ic.ac.uk at Tue Jul  5 16:29:48 2016
Module time:
	user time   =       2.63 seconds =       0.04 minutes
	system time =       0.02 seconds =       0.00 minutes
	total time  =          3 seconds =       0.05 minutes
Total time:
	user time   =       2.63 seconds =       0.04 minutes
	system time =       0.02 seconds =       0.00 minutes
	total time  =          3 seconds =       0.05 minutes


Properties will be evaluated at   0.000000,   0.000000,   0.000000 Bohr

Properties computed using the  density matrix

  Nuclear Dipole Moment: (a.u.)
     X:    -0.3272      Y:    -4.8231      Z:     1.3923

  Electronic Dipole Moment: (a.u.)
     X:    -0.4765      Y:     3.7192      Z:    -1.0059

  Dipole Moment: (a.u.)
     X:    -0.8037      Y:    -1.1038      Z:     0.3864     Total:     1.4191

  Dipole Moment: (Debye)
     X:    -2.0428      Y:    -2.8057      Z:     0.9822     Total:     3.6069

  Quadrupole Moment: (Debye Ang)
    XX:   -22.5504     YY:   -26.8152     ZZ:   -23.1788
    XY:    -2.8175     XZ:    -0.5780     YZ:     0.6122

  Traceless Quadrupole Moment: (Debye Ang)
    XX:     1.6310     YY:    -2.6338     ZZ:     1.0027
    XY:    -2.8175     XZ:    -0.5780     YZ:     0.6122

  Mulliken Charges: (a.u.)
   Center  Symbol    Alpha    Beta     Spin     Total
       1     H     0.43070  0.43070  0.00000  0.13859
       2     C     2.76091  2.76091  0.00000  0.47818
       3     N     3.88992  3.88992  0.00000 -0.77984
       4     O     4.24330  4.24330  0.00000 -0.48661
       5     C     3.13349  3.13349  0.00000 -0.26698
       6     H     0.30845  0.30845  0.00000  0.38310
       7     H     0.40428  0.40428  0.00000  0.19144
       8     H     0.41562  0.41562  0.00000  0.16876
       9     H     0.41332  0.41332  0.00000  0.17336

   Total alpha = 16.00000, Total beta = 16.00000, Total charge = -0.00000


*** PSI4 exiting successfully. Buy a developer a beer!
