    -----------------------------------------------------------------------
          Psi4: An Open-Source Ab Initio Electronic Structure Package
                              Psi4 (no tag) Driver

                          Git: Rev {detached?}  

    J. M. Turney, A. C. Simmonett, R. M. Parrish, E. G. Hohenstein,
    F. A. Evangelista, J. T. Fermann, B. J. Mintz, L. A. Burns, J. J. Wilke,
    M. L. Abrams, N. J. Russ, M. L. Leininger, C. L. Janssen, E. T. Seidl,
    W. D. Allen, H. F. Schaefer, R. A. King, E. F. Valeev, C. D. Sherrill,
    and T. D. Crawford, WIREs Comput. Mol. Sci. 2, 556-565 (2012)
    (doi: 10.1002/wcms.93)

                         Additional Contributions by
    A. E. DePrince, M. Saitow, U. Bozkaya, A. Yu. Sokolov
    -----------------------------------------------------------------------


    Psi4 started on: Tue Jul  5 17:01:28 2016

    Process ID:  19394
    PSI4DATADIR: /export131/home/mjharvey/miniconda3/share
    Memory level set to 256.000 MB

  ==> Input File <==

--------------------------------------------------------------------------
set {
	reference rhf
	basis 6-31G*
}


set_num_threads( 1 )
memory 2 gb

molecule MOL {
0 1

H	 2.451652	 -2.178703	 0.543297
O	 2.773837	 -1.297590	 0.410870
C	 1.759943	 -0.431505	 0.213148
C	 1.481518	 -0.063058	 -1.099357
C	 1.010290	 0.085882	 1.251639
H	 2.078497	 -0.478954	 -1.888980
C	 0.455901	 0.820010	 -1.366497
H	 1.202823	 -0.180621	 2.272146
C	 -0.012190	 0.970159	 0.947655
H	 0.247825	 1.099032	 -2.382720
C	 -0.311927	 1.353819	 -0.340177
N	 -0.802158	 1.514544	 2.049962
H	 -1.110728	 2.039872	 -0.531628
O	 -0.648252	 1.033900	 3.132241
O	 -1.554410	 2.406888	 1.804800

	symmetry c1
}
set optking {
	frozen_dihedral = ("
		11 9 12 14
	")
}

ee = energy('scf')
oeprop('DIPOLE', 'QUADRUPOLE', 'MULLIKEN_CHARGES')
f=open( 'psi4out.xyz', 'w' )
f.write( "15  " )
f.write( str(ee) + "\n" )
f.write( MOL.save_string_xyz() )
f.close()
--------------------------------------------------------------------------

  Memory set to   2.000 GiB by Python script.

*** tstart() called on cx1-1-4-3.cx1.hpc.ic.ac.uk
*** at Tue Jul  5 17:01:29 2016


         ---------------------------------------------------------
                                   SCF
            by Justin Turney, Rob Parrish, and Andy Simmonett
                              RHF Reference
                        1 Threads,   2000 MiB Core
         ---------------------------------------------------------

  ==> Geometry <==

    Molecular point group: c1
    Full point group: C1

    Geometry (in Angstrom), charge = 0, multiplicity = 1:

       Center              X                  Y                   Z               Mass       
    ------------   -----------------  -----------------  -----------------  -----------------
           H          2.053068719945    -2.816098897651    -0.230068499008     1.007825032070
           O          2.375253719945    -1.934985897651    -0.362495499008    15.994914619560
           C          1.361359719945    -1.068900897651    -0.560217499008    12.000000000000
           C          1.082934719945    -0.700453897651    -1.872722499008    12.000000000000
           C          0.611706719945    -0.551513897651     0.478273500992    12.000000000000
           H          1.679913719945    -1.116349897651    -2.662345499008     1.007825032070
           C          0.057317719945     0.182614102349    -2.139862499008    12.000000000000
           H          0.804239719945    -0.818016897651     1.498780500992     1.007825032070
           C         -0.410773280055     0.332763102349     0.174289500992    12.000000000000
           H         -0.150758280055     0.461636102349    -3.156085499008     1.007825032070
           C         -0.710510280055     0.716423102349    -1.113542499008    12.000000000000
           N         -1.200741280055     0.877148102349     1.276596500992    14.003074004780
           H         -1.509311280055     1.402476102349    -1.304993499008     1.007825032070
           O         -1.046835280055     0.396504102349     2.358875500992    15.994914619560
           O         -1.952993280055     1.769492102349     1.031434500992    15.994914619560

  Running in c1 symmetry.

  Rotational constants: A =      0.09407  B =      0.03320  C =      0.02465 [cm^-1]
  Rotational constants: A =   2820.24812  B =    995.41647  C =    738.94446 [MHz]
  Nuclear repulsion =  503.206317725517749

  Charge       = 0
  Multiplicity = 1
  Electrons    = 72
  Nalpha       = 36
  Nbeta        = 36

  ==> Algorithm <==

  SCF Algorithm Type is DF.
  DIIS enabled.
  MOM disabled.
  Fractional occupation disabled.
  Guess Type is CORE.
  Energy threshold   = 1.00e-06
  Density threshold  = 1.00e-06
  Integral threshold = 0.00e+00

  ==> Primary Basis <==

  Basis Set: 6-31G*
    Number of shells: 70
    Number of basis function: 160
    Number of Cartesian functions: 160
    Spherical Harmonics?: false
    Max angular momentum: 2

  ==> Pre-Iterations <==

   -------------------------------------------------------
    Irrep   Nso     Nmo     Nalpha   Nbeta   Ndocc  Nsocc
   -------------------------------------------------------
     A        160     160       0       0       0       0
   -------------------------------------------------------
    Total     160     160      36      36      36       0
   -------------------------------------------------------

 OEINTS: Overlap, kinetic, potential, dipole, and quadrupole integrals
         stored in file 35.

  ==> Integral Setup <==

  ==> DFJK: Density-Fitted J/K Matrices <==

    J tasked:                  Yes
    K tasked:                  Yes
    wK tasked:                  No
    OpenMP threads:              1
    Integrals threads:           1
    Memory (MB):              1430
    Algorithm:                Core
    Integral Cache:           NONE
    Schwarz Cutoff:          1E-12
    Fitting Condition:       1E-12

   => Auxiliary Basis Set <=

  Basis Set: 
    Number of shells: 285
    Number of basis function: 935
    Number of Cartesian functions: 935
    Spherical Harmonics?: false
    Max angular momentum: 3

  Minimum eigenvalue in the overlap matrix is 4.1427819338E-04.
  Using Symmetric Orthogonalization.
  SCF Guess: Core (One-Electron) Hamiltonian.

  ==> Iterations <==

                           Total Energy        Delta E     RMS |[F,P]|

   @DF-RHF iter   1:  -421.50769288263763   -4.21508e+02   6.02814e-02 
   @DF-RHF iter   2:  -310.69980654845966    1.10808e+02   5.62210e-02 DIIS
   @DF-RHF iter   3:  -327.79301010047101   -1.70932e+01   7.17273e-02 DIIS
   @DF-RHF iter   4:  -494.84659038574597   -1.67054e+02   2.45413e-02 DIIS
   @DF-RHF iter   5:  -501.37788590985537   -6.53130e+00   2.13342e-02 DIIS
   @DF-RHF iter   6:  -508.22134712748328   -6.84346e+00   7.87965e-03 DIIS
   @DF-RHF iter   7:  -508.86242872425038   -6.41082e-01   3.09875e-03 DIIS
   @DF-RHF iter   8:  -508.96721305183115   -1.04784e-01   1.70069e-03 DIIS
   @DF-RHF iter   9:  -509.01861827722604   -5.14052e-02   4.93922e-04 DIIS
   @DF-RHF iter  10:  -509.02189702771983   -3.27875e-03   1.64755e-04 DIIS
   @DF-RHF iter  11:  -509.02243753917054   -5.40511e-04   7.21055e-05 DIIS
   @DF-RHF iter  12:  -509.02254792734738   -1.10388e-04   3.71351e-05 DIIS
   @DF-RHF iter  13:  -509.02258001678268   -3.20894e-05   1.38426e-05 DIIS
   @DF-RHF iter  14:  -509.02258748355274   -7.46677e-06   5.44759e-06 DIIS
   @DF-RHF iter  15:  -509.02258884836289   -1.36481e-06   2.60915e-06 DIIS
   @DF-RHF iter  16:  -509.02258929515364   -4.46791e-07   1.15341e-06 DIIS
   @DF-RHF iter  17:  -509.02258936329912   -6.81455e-08   4.23896e-07 DIIS

  ==> Post-Iterations <==

    Orbital Energies (a.u.)
    -----------------------

    Doubly Occupied:                                                      

       1A    -20.603982     2A    -20.603305     3A    -20.601760  
       4A    -15.858237     5A    -11.321056     6A    -11.309050  
       7A    -11.269126     8A    -11.267644     9A    -11.265083  
      10A    -11.262405    11A     -1.637113    12A     -1.426533  
      13A     -1.420308    14A     -1.200199    15A     -1.093759  
      16A     -1.045665    17A     -0.963630    18A     -0.870573  
      19A     -0.831762    20A     -0.792530    21A     -0.740534  
      22A     -0.735015    23A     -0.722449    24A     -0.709697  
      25A     -0.679807    26A     -0.642027    27A     -0.627236  
      28A     -0.568497    29A     -0.556731    30A     -0.528827  
      31A     -0.510533    32A     -0.489949    33A     -0.484034  
      34A     -0.453604    35A     -0.376354    36A     -0.356661  

    Virtual:                                                              

      37A      0.059202    38A      0.119476    39A      0.176600  
      40A      0.214207    41A      0.228326    42A      0.288949  
      43A      0.295552    44A      0.324166    45A      0.355892  
      46A      0.385678    47A      0.429045    48A      0.431787  
      49A      0.451401    50A      0.521642    51A      0.534062  
      52A      0.563701    53A      0.615276    54A      0.681084  
      55A      0.694722    56A      0.709238    57A      0.716196  
      58A      0.756375    59A      0.786020    60A      0.797586  
      61A      0.802581    62A      0.811836    63A      0.834697  
      64A      0.873901    65A      0.877356    66A      0.886416  
      67A      0.899522    68A      0.946952    69A      0.976686  
      70A      0.985373    71A      1.003344    72A      1.037284  
      73A      1.047894    74A      1.074809    75A      1.081209  
      76A      1.094109    77A      1.119806    78A      1.140620  
      79A      1.168876    80A      1.176688    81A      1.199368  
      82A      1.221798    83A      1.240315    84A      1.266335  
      85A      1.270248    86A      1.297952    87A      1.309808  
      88A      1.355455    89A      1.377773    90A      1.404067  
      91A      1.409960    92A      1.453558    93A      1.463296  
      94A      1.510972    95A      1.543075    96A      1.587732  
      97A      1.634054    98A      1.653674    99A      1.686936  
     100A      1.710936   101A      1.717602   102A      1.732576  
     103A      1.742694   104A      1.759460   105A      1.906157  
     106A      1.971261   107A      2.009189   108A      2.018527  
     109A      2.042370   110A      2.061678   111A      2.078490  
     112A      2.109622   113A      2.116810   114A      2.180633  
     115A      2.218042   116A      2.230126   117A      2.240735  
     118A      2.251975   119A      2.271652   120A      2.292269  
     121A      2.366518   122A      2.388548   123A      2.430395  
     124A      2.461189   125A      2.466886   126A      2.473210  
     127A      2.546135   128A      2.601379   129A      2.608343  
     130A      2.624165   131A      2.701452   132A      2.741442  
     133A      2.832279   134A      2.858331   135A      2.904879  
     136A      2.917543   137A      2.958698   138A      2.972597  
     139A      3.019619   140A      3.092458   141A      3.099939  
     142A      3.110947   143A      3.166022   144A      3.253913  
     145A      3.300697   146A      3.301392   147A      3.417532  
     148A      3.498626   149A      3.607852   150A      3.834408  
     151A      4.159949   152A      4.269174   153A      4.349291  
     154A      4.435904   155A      4.502747   156A      4.535107  
     157A      4.608009   158A      4.757881   159A      4.871073  
     160A      5.160125  

    Final Occupation by Irrep:
              A 
    DOCC [    36 ]

  Energy converged.

  @DF-RHF Final Energy:  -509.02258936329912

   => Energetics <=

    Nuclear Repulsion Energy =            503.2063177255177493
    One-Electron Energy =               -1692.8062878681703296
    Two-Electron Energy =                 680.5773807793534615
    DFT Exchange-Correlation Energy =       0.0000000000000000
    Empirical Dispersion Energy =           0.0000000000000000
    PCM Polarization Energy =               0.0000000000000000
    EFP Energy =                            0.0000000000000000
    Total Energy =                       -509.0225893632991756

    Alert: EFP and PCM quantities not currently incorporated into SCF psivars.

Properties will be evaluated at   0.000000,   0.000000,   0.000000 Bohr
  ==> Properties <==


Properties computed using the SCF density matrix

  Nuclear Dipole Moment: (a.u.)
     X:     2.6977      Y:    -2.7073      Z:    -5.4778

  Electronic Dipole Moment: (a.u.)
     X:    -2.1881      Y:     1.5996      Z:     4.0065

  Dipole Moment: (a.u.)
     X:     0.5096      Y:    -1.1078      Z:    -1.4712     Total:     1.9109

  Dipole Moment: (Debye)
     X:     1.2952      Y:    -2.8156      Z:    -3.7395     Total:     4.8569


  Saving occupied orbitals to File 180.

*** tstop() called on cx1-1-4-3.cx1.hpc.ic.ac.uk at Tue Jul  5 17:01:51 2016
Module time:
	user time   =      21.64 seconds =       0.36 minutes
	system time =       0.27 seconds =       0.00 minutes
	total time  =         22 seconds =       0.37 minutes
Total time:
	user time   =      21.64 seconds =       0.36 minutes
	system time =       0.27 seconds =       0.00 minutes
	total time  =         22 seconds =       0.37 minutes


Properties will be evaluated at   0.000000,   0.000000,   0.000000 Bohr

Properties computed using the  density matrix

  Nuclear Dipole Moment: (a.u.)
     X:     2.6977      Y:    -2.7073      Z:    -5.4778

  Electronic Dipole Moment: (a.u.)
     X:    -2.1881      Y:     1.5996      Z:     4.0065

  Dipole Moment: (a.u.)
     X:     0.5096      Y:    -1.1078      Z:    -1.4712     Total:     1.9109

  Dipole Moment: (Debye)
     X:     1.2952      Y:    -2.8156      Z:    -3.7395     Total:     4.8569

  Quadrupole Moment: (Debye Ang)
    XX:   -64.4338     YY:   -52.1491     ZZ:   -56.6886
    XY:     1.0162     XZ:     4.9112     YZ:    -3.1883

  Traceless Quadrupole Moment: (Debye Ang)
    XX:    -6.6766     YY:     5.6081     ZZ:     1.0686
    XY:     1.0162     XZ:     4.9112     YZ:    -3.1883

  Mulliken Charges: (a.u.)
   Center  Symbol    Alpha    Beta     Spin     Total
       1     H     0.26637  0.26637  0.00000  0.46725
       2     O     4.38333  4.38333  0.00000 -0.76667
       3     C     2.81727  2.81727  0.00000  0.36546
       4     C     3.10281  3.10281  0.00000 -0.20561
       5     C     3.11351  3.11351  0.00000 -0.22701
       6     H     0.38309  0.38309  0.00000  0.23382
       7     C     3.10593  3.10593  0.00000 -0.21187
       8     H     0.36093  0.36093  0.00000  0.27815
       9     C     2.91632  2.91632  0.00000  0.16735
      10     H     0.38756  0.38756  0.00000  0.22488
      11     C     3.09079  3.09079  0.00000 -0.18159
      12     N     3.24201  3.24201  0.00000  0.51599
      13     H     0.36453  0.36453  0.00000  0.27093
      14     O     4.23333  4.23333  0.00000 -0.46666
      15     O     4.23221  4.23221  0.00000 -0.46441

   Total alpha = 36.00000, Total beta = 36.00000, Total charge = -0.00000


*** PSI4 exiting successfully. Buy a developer a beer!
