    -----------------------------------------------------------------------
          Psi4: An Open-Source Ab Initio Electronic Structure Package
                              Psi4 (no tag) Driver

                          Git: Rev {detached?}  

    J. M. Turney, A. C. Simmonett, R. M. Parrish, E. G. Hohenstein,
    F. A. Evangelista, J. T. Fermann, B. J. Mintz, L. A. Burns, J. J. Wilke,
    M. L. Abrams, N. J. Russ, M. L. Leininger, C. L. Janssen, E. T. Seidl,
    W. D. Allen, H. F. Schaefer, R. A. King, E. F. Valeev, C. D. Sherrill,
    and T. D. Crawford, WIREs Comput. Mol. Sci. 2, 556-565 (2012)
    (doi: 10.1002/wcms.93)

                         Additional Contributions by
    A. E. DePrince, M. Saitow, U. Bozkaya, A. Yu. Sokolov
    -----------------------------------------------------------------------


    Psi4 started on: Tue Jul  5 16:32:49 2016

    Process ID:   9562
    PSI4DATADIR: /export131/home/mjharvey/miniconda3/share
    Memory level set to 256.000 MB

  ==> Input File <==

--------------------------------------------------------------------------
set {
	reference rhf
	basis 6-31G*
}


set_num_threads( 1 )
memory 2 gb

molecule MOL {
0 1

O	 0.542409	 0.548232	 -0.962006
C	 0.028650	 0.075053	 -0.000277
C	 -1.233602	 -0.752807	 0.000328
O	 0.510962	 0.218363	 1.227216
C	 -2.501530	 0.091881	 0.000126
H	 -1.193807	 -1.406641	 -0.865785
H	 -1.193516	 -1.405779	 0.867015
H	 -2.545121	 0.729328	 -0.874513
H	 -3.377167	 -0.548497	 0.000561
H	 -2.544818	 0.730135	 0.874258
C	 1.697850	 0.978263	 1.366635
H	 2.505429	 0.527000	 0.808431
H	 1.926099	 0.978086	 2.421038
H	 1.545175	 1.988994	 1.016514

	symmetry c1
}
set optking {
	frozen_dihedral = ("
		11 4 2 3
	")
}

ee = energy('scf')
oeprop('DIPOLE', 'QUADRUPOLE', 'MULLIKEN_CHARGES')
f=open( 'psi4out.xyz', 'w' )
f.write( "14  " )
f.write( str(ee) + "\n" )
f.write( MOL.save_string_xyz() )
f.close()
--------------------------------------------------------------------------

  Memory set to   2.000 GiB by Python script.

*** tstart() called on cx1-1-4-4.cx1.hpc.ic.ac.uk
*** at Tue Jul  5 16:32:50 2016


         ---------------------------------------------------------
                                   SCF
            by Justin Turney, Rob Parrish, and Andy Simmonett
                              RHF Reference
                        1 Threads,   2000 MiB Core
         ---------------------------------------------------------

  ==> Geometry <==

    Molecular point group: c1
    Full point group: C1

    Geometry (in Angstrom), charge = 0, multiplicity = 1:

       Center              X                  Y                   Z               Mass       
    ------------   -----------------  -----------------  -----------------  -----------------
           O          0.680632320178     0.337273710391    -1.245070435830    15.994914619560
           C          0.166873320178    -0.135905289609    -0.283341435830    12.000000000000
           C         -1.095378679822    -0.963765289609    -0.282736435830    12.000000000000
           O          0.649185320178     0.007404710391     0.944151564170    15.994914619560
           C         -2.363306679822    -0.119077289609    -0.282938435830    12.000000000000
           H         -1.055583679822    -1.617599289609    -1.148849435830     1.007825032070
           H         -1.055292679822    -1.616737289609     0.583950564170     1.007825032070
           H         -2.406897679822     0.518369710391    -1.157577435830     1.007825032070
           H         -3.238943679822    -0.759455289609    -0.282503435830     1.007825032070
           H         -2.406594679822     0.519176710391     0.591193564170     1.007825032070
           C          1.836073320178     0.767304710391     1.083570564170    12.000000000000
           H          2.643652320178     0.316041710391     0.525366564170     1.007825032070
           H          2.064322320178     0.767127710391     2.137973564170     1.007825032070
           H          1.683398320178     1.778035710391     0.733449564170     1.007825032070

  Running in c1 symmetry.

  Rotational constants: A =      0.24383  B =      0.07691  C =      0.06663 [cm^-1]
  Rotational constants: A =   7309.88999  B =   2305.72725  C =   1997.60369 [MHz]
  Nuclear repulsion =  247.504596898214942

  Charge       = 0
  Multiplicity = 1
  Electrons    = 48
  Nalpha       = 24
  Nbeta        = 24

  ==> Algorithm <==

  SCF Algorithm Type is DF.
  DIIS enabled.
  MOM disabled.
  Fractional occupation disabled.
  Guess Type is CORE.
  Energy threshold   = 1.00e-06
  Density threshold  = 1.00e-06
  Integral threshold = 0.00e+00

  ==> Primary Basis <==

  Basis Set: 6-31G*
    Number of shells: 52
    Number of basis function: 106
    Number of Cartesian functions: 106
    Spherical Harmonics?: false
    Max angular momentum: 2

  ==> Pre-Iterations <==

   -------------------------------------------------------
    Irrep   Nso     Nmo     Nalpha   Nbeta   Ndocc  Nsocc
   -------------------------------------------------------
     A        106     106       0       0       0       0
   -------------------------------------------------------
    Total     106     106      24      24      24       0
   -------------------------------------------------------

 OEINTS: Overlap, kinetic, potential, dipole, and quadrupole integrals
         stored in file 35.

  ==> Integral Setup <==

  ==> DFJK: Density-Fitted J/K Matrices <==

    J tasked:                  Yes
    K tasked:                  Yes
    wK tasked:                  No
    OpenMP threads:              1
    Integrals threads:           1
    Memory (MB):              1430
    Algorithm:                Core
    Integral Cache:           NONE
    Schwarz Cutoff:          1E-12
    Fitting Condition:       1E-12

   => Auxiliary Basis Set <=

  Basis Set: 
    Number of shells: 216
    Number of basis function: 686
    Number of Cartesian functions: 686
    Spherical Harmonics?: false
    Max angular momentum: 3

  Minimum eigenvalue in the overlap matrix is 3.3800596032E-03.
  Using Symmetric Orthogonalization.
  SCF Guess: Core (One-Electron) Hamiltonian.

  ==> Iterations <==

                           Total Energy        Delta E     RMS |[F,P]|

   @DF-RHF iter   1:  -225.58971433193759   -2.25590e+02   8.21564e-02 
   @DF-RHF iter   2:  -203.42266837953932    2.21670e+01   6.86376e-02 DIIS
   @DF-RHF iter   3:  -279.95796412529478   -7.65353e+01   4.26321e-02 DIIS
   @DF-RHF iter   4:  -277.67663520064173    2.28133e+00   5.45033e-02 DIIS
   @DF-RHF iter   5:  -305.48099844510432   -2.78044e+01   8.37197e-03 DIIS
   @DF-RHF iter   6:  -305.77219075995731   -2.91192e-01   4.58995e-03 DIIS
   @DF-RHF iter   7:  -305.86230794122207   -9.01172e-02   9.77407e-04 DIIS
   @DF-RHF iter   8:  -305.86886894349141   -6.56100e-03   3.03418e-04 DIIS
   @DF-RHF iter   9:  -305.86943170143968   -5.62758e-04   1.28818e-04 DIIS
   @DF-RHF iter  10:  -305.86955443552438   -1.22734e-04   5.90959e-05 DIIS
   @DF-RHF iter  11:  -305.86957856904178   -2.41335e-05   2.83040e-05 DIIS
   @DF-RHF iter  12:  -305.86958419941607   -5.63037e-06   7.73726e-06 DIIS
   @DF-RHF iter  13:  -305.86958473371578   -5.34300e-07   1.74238e-06 DIIS
   @DF-RHF iter  14:  -305.86958475683377   -2.31180e-08   4.80854e-07 DIIS

  ==> Post-Iterations <==

    Orbital Energies (a.u.)
    -----------------------

    Doubly Occupied:                                                      

       1A    -20.605521     2A    -20.544308     3A    -11.371987  
       4A    -11.281045     5A    -11.236818     6A    -11.227278  
       7A     -1.469882     8A     -1.362547     9A     -1.067835  
      10A     -0.978803    11A     -0.884025    12A     -0.773306  
      13A     -0.697090    14A     -0.679043    15A     -0.673132  
      16A     -0.614051    17A     -0.599148    18A     -0.568008  
      19A     -0.543763    20A     -0.519155    21A     -0.511826  
      22A     -0.502248    23A     -0.455357    24A     -0.434490  

    Virtual:                                                              

      25A      0.190091    26A      0.251756    27A      0.266362  
      28A      0.294531    29A      0.297244    30A      0.309408  
      31A      0.314766    32A      0.327774    33A      0.332856  
      34A      0.345266    35A      0.397669    36A      0.446345  
      37A      0.512050    38A      0.568739    39A      0.716545  
      40A      0.727124    41A      0.734671    42A      0.748150  
      43A      0.758535    44A      0.787835    45A      0.827821  
      46A      0.893274    47A      0.932123    48A      0.971614  
      49A      0.987322    50A      1.010329    51A      1.081232  
      52A      1.099739    53A      1.128358    54A      1.132198  
      55A      1.148010    56A      1.159698    57A      1.190168  
      58A      1.210509    59A      1.228141    60A      1.238370  
      61A      1.245046    62A      1.296273    63A      1.347527  
      64A      1.368398    65A      1.397555    66A      1.505976  
      67A      1.553700    68A      1.650350    69A      1.672328  
      70A      1.800284    71A      1.810393    72A      1.854962  
      73A      1.933928    74A      1.974446    75A      2.050115  
      76A      2.068432    77A      2.115049    78A      2.159421  
      79A      2.174835    80A      2.249811    81A      2.294272  
      82A      2.361202    83A      2.389823    84A      2.399246  
      85A      2.452434    86A      2.501796    87A      2.589313  
      88A      2.622949    89A      2.638284    90A      2.681814  
      91A      2.692895    92A      2.715874    93A      2.847556  
      94A      2.927105    95A      3.006442    96A      3.100918  
      97A      3.146389    98A      3.348672    99A      3.403317  
     100A      3.554433   101A      4.443022   102A      4.540323  
     103A      4.604271   104A      4.660687   105A      4.779456  
     106A      4.981876  

    Final Occupation by Irrep:
              A 
    DOCC [    24 ]

  Energy converged.

  @DF-RHF Final Energy:  -305.86958475683377

   => Energetics <=

    Nuclear Repulsion Energy =            247.5045968982149418
    One-Electron Energy =                -907.5470463777701298
    Two-Electron Energy =                 354.1728647227214424
    DFT Exchange-Correlation Energy =       0.0000000000000000
    Empirical Dispersion Energy =           0.0000000000000000
    PCM Polarization Energy =               0.0000000000000000
    EFP Energy =                            0.0000000000000000
    Total Energy =                       -305.8695847568337740

    Alert: EFP and PCM quantities not currently incorporated into SCF psivars.

Properties will be evaluated at   0.000000,   0.000000,   0.000000 Bohr
  ==> Properties <==


Properties computed using the SCF density matrix

  Nuclear Dipole Moment: (a.u.)
     X:    -3.5297      Y:    -0.0874      Z:     1.8576

  Electronic Dipole Moment: (a.u.)
     X:     3.3267      Y:    -0.0812      Z:    -1.1368

  Dipole Moment: (a.u.)
     X:    -0.2030      Y:    -0.1686      Z:     0.7207     Total:     0.7675

  Dipole Moment: (Debye)
     X:    -0.5159      Y:    -0.4285      Z:     1.8319     Total:     1.9508


  Saving occupied orbitals to File 180.

*** tstop() called on cx1-1-4-4.cx1.hpc.ic.ac.uk at Tue Jul  5 16:32:56 2016
Module time:
	user time   =       5.98 seconds =       0.10 minutes
	system time =       0.04 seconds =       0.00 minutes
	total time  =          6 seconds =       0.10 minutes
Total time:
	user time   =       5.98 seconds =       0.10 minutes
	system time =       0.04 seconds =       0.00 minutes
	total time  =          6 seconds =       0.10 minutes


Properties will be evaluated at   0.000000,   0.000000,   0.000000 Bohr

Properties computed using the  density matrix

  Nuclear Dipole Moment: (a.u.)
     X:    -3.5297      Y:    -0.0874      Z:     1.8576

  Electronic Dipole Moment: (a.u.)
     X:     3.3267      Y:    -0.0812      Z:    -1.1368

  Dipole Moment: (a.u.)
     X:    -0.2030      Y:    -0.1686      Z:     0.7207     Total:     0.7675

  Dipole Moment: (Debye)
     X:    -0.5159      Y:    -0.4285      Z:     1.8319     Total:     1.9508

  Quadrupole Moment: (Debye Ang)
    XX:   -32.3622     YY:   -34.9379     ZZ:   -40.3535
    XY:     1.5177     XZ:     3.9082     YZ:     2.6286

  Traceless Quadrupole Moment: (Debye Ang)
    XX:     3.5223     YY:     0.9466     ZZ:    -4.4690
    XY:     1.5177     XZ:     3.9082     YZ:     2.6286

  Mulliken Charges: (a.u.)
   Center  Symbol    Alpha    Beta     Spin     Total
       1     O     4.28423  4.28423  0.00000 -0.56845
       2     C     2.61649  2.61649  0.00000  0.76701
       3     C     3.19674  3.19674  0.00000 -0.39348
       4     O     4.30194  4.30194  0.00000 -0.60389
       5     C     3.24852  3.24852  0.00000 -0.49703
       6     H     0.40076  0.40076  0.00000  0.19848
       7     H     0.40262  0.40262  0.00000  0.19477
       8     H     0.40650  0.40650  0.00000  0.18701
       9     H     0.41152  0.41152  0.00000  0.17697
      10     H     0.41162  0.41162  0.00000  0.17675
      11     C     3.09302  3.09302  0.00000 -0.18604
      12     H     0.40851  0.40851  0.00000  0.18297
      13     H     0.40859  0.40859  0.00000  0.18281
      14     H     0.40894  0.40894  0.00000  0.18212

   Total alpha = 24.00000, Total beta = 24.00000, Total charge =  0.00000


*** PSI4 exiting successfully. Buy a developer a beer!
