    -----------------------------------------------------------------------
          Psi4: An Open-Source Ab Initio Electronic Structure Package
                              Psi4 (no tag) Driver

                          Git: Rev {detached?}  

    J. M. Turney, A. C. Simmonett, R. M. Parrish, E. G. Hohenstein,
    F. A. Evangelista, J. T. Fermann, B. J. Mintz, L. A. Burns, J. J. Wilke,
    M. L. Abrams, N. J. Russ, M. L. Leininger, C. L. Janssen, E. T. Seidl,
    W. D. Allen, H. F. Schaefer, R. A. King, E. F. Valeev, C. D. Sherrill,
    and T. D. Crawford, WIREs Comput. Mol. Sci. 2, 556-565 (2012)
    (doi: 10.1002/wcms.93)

                         Additional Contributions by
    A. E. DePrince, M. Saitow, U. Bozkaya, A. Yu. Sokolov
    -----------------------------------------------------------------------


    Psi4 started on: Tue Jul  5 16:36:17 2016

    Process ID:  18637
    PSI4DATADIR: /export131/home/mjharvey/miniconda3/share
    Memory level set to 256.000 MB

  ==> Input File <==

--------------------------------------------------------------------------
set {
	reference rhf
	basis 6-31G*
}


set_num_threads( 1 )
memory 2 gb

molecule MOL {
0 1

H	 -2.098997	 -0.674324	 -0.616650
O	 -2.035884	 -0.060112	 0.102722
C	 -0.955155	 0.788182	 -0.092531
C	 0.353668	 0.040312	 -0.004810
H	 -0.985057	 1.290372	 -1.054184
H	 -0.974469	 1.533190	 0.688632
F	 0.649583	 -0.522444	 -1.171135
F	 1.339533	 0.867421	 0.303672
F	 0.328625	 -0.916070	 0.900869

	symmetry c1
}
set optking {
	frozen_dihedral = ("
		1 2 3 5
	")
}

ee = energy('scf')
oeprop('DIPOLE', 'QUADRUPOLE', 'MULLIKEN_CHARGES')
f=open( 'psi4out.xyz', 'w' )
f.write( "9  " )
f.write( str(ee) + "\n" )
f.write( MOL.save_string_xyz() )
f.close()
--------------------------------------------------------------------------

  Memory set to   2.000 GiB by Python script.

*** tstart() called on cx1-3-2-1.cx1.hpc.ic.ac.uk
*** at Tue Jul  5 16:36:17 2016


         ---------------------------------------------------------
                                   SCF
            by Justin Turney, Rob Parrish, and Andy Simmonett
                              RHF Reference
                        1 Threads,   2000 MiB Core
         ---------------------------------------------------------

  ==> Geometry <==

    Molecular point group: c1
    Full point group: C1

    Geometry (in Angstrom), charge = 0, multiplicity = 1:

       Center              X                  Y                   Z               Mass       
    ------------   -----------------  -----------------  -----------------  -----------------
           H         -2.100611403039    -0.677290021202    -0.617846942378     1.007825032070
           O         -2.037498403039    -0.063078021202     0.101525057622    15.994914619560
           C         -0.956769403039     0.785215978798    -0.093727942378    12.000000000000
           C          0.352053596961     0.037345978798    -0.006006942378    12.000000000000
           H         -0.986671403039     1.287405978798    -1.055380942378     1.007825032070
           H         -0.976083403039     1.530223978798     0.687435057622     1.007825032070
           F          0.647968596961    -0.525410021202    -1.172331942378    18.998403224000
           F          1.337918596961     0.864454978798     0.302475057622    18.998403224000
           F          0.327010596961    -0.919036021202     0.899672057622    18.998403224000

  Running in c1 symmetry.

  Rotational constants: A =      0.18151  B =      0.09645  C =      0.09536 [cm^-1]
  Rotational constants: A =   5441.66335  B =   2891.44608  C =   2858.78735 [MHz]
  Nuclear repulsion =  277.104178687534045

  Charge       = 0
  Multiplicity = 1
  Electrons    = 50
  Nalpha       = 25
  Nbeta        = 25

  ==> Algorithm <==

  SCF Algorithm Type is DF.
  DIIS enabled.
  MOM disabled.
  Fractional occupation disabled.
  Guess Type is CORE.
  Energy threshold   = 1.00e-06
  Density threshold  = 1.00e-06
  Integral threshold = 0.00e+00

  ==> Primary Basis <==

  Basis Set: 6-31G*
    Number of shells: 42
    Number of basis function: 96
    Number of Cartesian functions: 96
    Spherical Harmonics?: false
    Max angular momentum: 2

  ==> Pre-Iterations <==

   -------------------------------------------------------
    Irrep   Nso     Nmo     Nalpha   Nbeta   Ndocc  Nsocc
   -------------------------------------------------------
     A         96      96       0       0       0       0
   -------------------------------------------------------
    Total      96      96      25      25      25       0
   -------------------------------------------------------

 OEINTS: Overlap, kinetic, potential, dipole, and quadrupole integrals
         stored in file 35.

  ==> Integral Setup <==

  ==> DFJK: Density-Fitted J/K Matrices <==

    J tasked:                  Yes
    K tasked:                  Yes
    wK tasked:                  No
    OpenMP threads:              1
    Integrals threads:           1
    Memory (MB):              1430
    Algorithm:                Core
    Integral Cache:           NONE
    Schwarz Cutoff:          1E-12
    Fitting Condition:       1E-12

   => Auxiliary Basis Set <=

  Basis Set: 
    Number of shells: 171
    Number of basis function: 561
    Number of Cartesian functions: 561
    Spherical Harmonics?: false
    Max angular momentum: 3

  Minimum eigenvalue in the overlap matrix is 1.8909991763E-03.
  Using Symmetric Orthogonalization.
  SCF Guess: Core (One-Electron) Hamiltonian.

  ==> Iterations <==

                           Total Energy        Delta E     RMS |[F,P]|

   @DF-RHF iter   1:  -398.63263638421984   -3.98633e+02   9.06346e-02 
   @DF-RHF iter   2:  -269.91663067217689    1.28716e+02   9.76885e-02 DIIS
   @DF-RHF iter   3:  -397.31133261810976   -1.27395e+02   6.48478e-02 DIIS
   @DF-RHF iter   4:  -446.96795224863888   -4.96566e+01   2.91561e-02 DIIS
   @DF-RHF iter   5:  -450.23238000081699   -3.26443e+00   1.12197e-02 DIIS
   @DF-RHF iter   6:  -450.57946283785179   -3.47083e-01   4.42524e-03 DIIS
   @DF-RHF iter   7:  -450.64565065141414   -6.61878e-02   1.58891e-03 DIIS
   @DF-RHF iter   8:  -450.65805880944720   -1.24082e-02   5.33705e-04 DIIS
   @DF-RHF iter   9:  -450.65953676560355   -1.47796e-03   1.23477e-04 DIIS
   @DF-RHF iter  10:  -450.65961583408114   -7.90685e-05   4.65379e-05 DIIS
   @DF-RHF iter  11:  -450.65962906429388   -1.32302e-05   1.17093e-05 DIIS
   @DF-RHF iter  12:  -450.65963029073055   -1.22644e-06   4.12743e-06 DIIS
   @DF-RHF iter  13:  -450.65963038104883   -9.03183e-08   1.31869e-06 DIIS
   @DF-RHF iter  14:  -450.65963038985615   -8.80732e-09   2.04600e-07 DIIS

  ==> Post-Iterations <==

    Orbital Energies (a.u.)
    -----------------------

    Doubly Occupied:                                                      

       1A    -26.341892     2A    -26.341801     3A    -26.338746  
       4A    -20.590406     5A    -11.499268     6A    -11.308882  
       7A     -1.739197     8A     -1.637722     9A     -1.635882  
      10A     -1.402714    11A     -1.047711    12A     -0.923032  
      13A     -0.830027    14A     -0.827323    15A     -0.803670  
      16A     -0.728478    17A     -0.711957    18A     -0.695858  
      19A     -0.663851    20A     -0.657755    21A     -0.641534  
      22A     -0.627957    23A     -0.612140    24A     -0.529445  
      25A     -0.481252  

    Virtual:                                                              

      26A      0.211224    27A      0.268816    28A      0.281239  
      29A      0.335696    30A      0.415372    31A      0.437832  
      32A      0.478268    33A      0.486158    34A      0.696132  
      35A      0.742369    36A      0.755834    37A      0.779467  
      38A      0.812818    39A      0.884259    40A      0.937562  
      41A      1.053982    42A      1.129294    43A      1.148015  
      44A      1.195284    45A      1.225054    46A      1.314774  
      47A      1.345948    48A      1.350774    49A      1.355976  
      50A      1.436732    51A      1.465149    52A      1.593795  
      53A      1.623034    54A      1.633883    55A      1.639824  
      56A      1.670962    57A      1.673949    58A      1.700723  
      59A      1.746391    60A      1.884002    61A      1.917134  
      62A      1.948109    63A      1.974155    64A      2.001020  
      65A      2.120129    66A      2.135691    67A      2.144245  
      68A      2.165755    69A      2.259623    70A      2.270763  
      71A      2.315259    72A      2.350336    73A      2.381941  
      74A      2.403699    75A      2.413960    76A      2.423794  
      77A      2.496036    78A      2.599736    79A      2.669986  
      80A      2.687048    81A      2.793847    82A      2.826120  
      83A      2.931639    84A      3.108099    85A      3.135130  
      86A      3.183766    87A      3.251547    88A      3.419172  
      89A      3.427548    90A      3.439885    91A      4.123665  
      92A      4.594676    93A      4.844791    94A      4.905614  
      95A      5.009174    96A      5.720752  

    Final Occupation by Irrep:
              A 
    DOCC [    25 ]

  Energy converged.

  @DF-RHF Final Energy:  -450.65963038985615

   => Energetics <=

    Nuclear Repulsion Energy =            277.1041786875340449
    One-Electron Energy =               -1176.2906311263805037
    Two-Electron Energy =                 448.5268220489900273
    DFT Exchange-Correlation Energy =       0.0000000000000000
    Empirical Dispersion Energy =           0.0000000000000000
    PCM Polarization Energy =               0.0000000000000000
    EFP Energy =                            0.0000000000000000
    Total Energy =                       -450.6596303898564315

    Alert: EFP and PCM quantities not currently incorporated into SCF psivars.

Properties will be evaluated at   0.000000,   0.000000,   0.000000 Bohr
  ==> Properties <==


Properties computed using the SCF density matrix

  Nuclear Dipole Moment: (a.u.)
     X:    -6.0010      Y:     2.5533      Z:    -0.9518

  Electronic Dipole Moment: (a.u.)
     X:     5.6700      Y:    -2.2312      Z:     0.3706

  Dipole Moment: (a.u.)
     X:    -0.3309      Y:     0.3221      Z:    -0.5811     Total:     0.7423

  Dipole Moment: (Debye)
     X:    -0.8411      Y:     0.8187      Z:    -1.4771     Total:     1.8867


  Saving occupied orbitals to File 180.

*** tstop() called on cx1-3-2-1.cx1.hpc.ic.ac.uk at Tue Jul  5 16:36:23 2016
Module time:
	user time   =       5.25 seconds =       0.09 minutes
	system time =       0.06 seconds =       0.00 minutes
	total time  =          6 seconds =       0.10 minutes
Total time:
	user time   =       5.25 seconds =       0.09 minutes
	system time =       0.06 seconds =       0.00 minutes
	total time  =          6 seconds =       0.10 minutes


Properties will be evaluated at   0.000000,   0.000000,   0.000000 Bohr

Properties computed using the  density matrix

  Nuclear Dipole Moment: (a.u.)
     X:    -6.0010      Y:     2.5533      Z:    -0.9518

  Electronic Dipole Moment: (a.u.)
     X:     5.6700      Y:    -2.2312      Z:     0.3706

  Dipole Moment: (a.u.)
     X:    -0.3309      Y:     0.3221      Z:    -0.5811     Total:     0.7423

  Dipole Moment: (Debye)
     X:    -0.8411      Y:     0.8187      Z:    -1.4771     Total:     1.8867

  Quadrupole Moment: (Debye Ang)
    XX:   -35.6341     YY:   -30.6554     ZZ:   -32.1660
    XY:     0.3515     XZ:     3.4029     YZ:     1.0659

  Traceless Quadrupole Moment: (Debye Ang)
    XX:    -2.8156     YY:     2.1631     ZZ:     0.6525
    XY:     0.3515     XZ:     3.4029     YZ:     1.0659

  Mulliken Charges: (a.u.)
   Center  Symbol    Alpha    Beta     Spin     Total
       1     H     0.27414  0.27414  0.00000  0.45172
       2     O     4.35918  4.35918  0.00000 -0.71836
       3     C     3.05754  3.05754  0.00000 -0.11509
       4     C     2.46455  2.46455  0.00000  1.07090
       5     H     0.40782  0.40782  0.00000  0.18436
       6     H     0.39483  0.39483  0.00000  0.21033
       7     F     4.68523  4.68523  0.00000 -0.37045
       8     F     4.68233  4.68233  0.00000 -0.36467
       9     F     4.67437  4.67437  0.00000 -0.34875

   Total alpha = 25.00000, Total beta = 25.00000, Total charge =  0.00000


*** PSI4 exiting successfully. Buy a developer a beer!
