    -----------------------------------------------------------------------
          Psi4: An Open-Source Ab Initio Electronic Structure Package
                              Psi4 (no tag) Driver

                          Git: Rev {detached?}  

    J. M. Turney, A. C. Simmonett, R. M. Parrish, E. G. Hohenstein,
    F. A. Evangelista, J. T. Fermann, B. J. Mintz, L. A. Burns, J. J. Wilke,
    M. L. Abrams, N. J. Russ, M. L. Leininger, C. L. Janssen, E. T. Seidl,
    W. D. Allen, H. F. Schaefer, R. A. King, E. F. Valeev, C. D. Sherrill,
    and T. D. Crawford, WIREs Comput. Mol. Sci. 2, 556-565 (2012)
    (doi: 10.1002/wcms.93)

                         Additional Contributions by
    A. E. DePrince, M. Saitow, U. Bozkaya, A. Yu. Sokolov
    -----------------------------------------------------------------------


    Psi4 started on: Tue Jul  5 16:49:21 2016

    Process ID:   6525
    PSI4DATADIR: /export131/home/mjharvey/miniconda3/share
    Memory level set to 256.000 MB

  ==> Input File <==

--------------------------------------------------------------------------
set {
	reference rhf
	basis 6-31G*
}


set_num_threads( 1 )
memory 2 gb

molecule MOL {
0 1

O	 3.225979	 0.970355	 -0.599647
C	 2.701189	 0.057885	 -0.047330
C	 1.245376	 -0.013843	 0.345420
O	 3.347903	 -1.046386	 0.304773
C	 0.455112	 1.231400	 -0.050772
H	 0.838542	 -0.913825	 -0.103701
H	 1.208210	 -0.175333	 1.419774
C	 -0.998893	 1.219485	 0.433193
H	 0.482531	 1.345121	 -1.130325
H	 0.957290	 2.103070	 0.354729
C	 -1.883438	 0.145884	 -0.207175
H	 -1.431207	 2.195402	 0.224832
H	 -1.019646	 1.105716	 1.516076
C	 -3.347647	 0.245583	 0.225435
H	 -1.822183	 0.231698	 -1.291012
H	 -1.510341	 -0.844814	 0.042401
C	 -4.239992	 -0.825570	 -0.404234
H	 -3.732888	 1.230466	 -0.033079
H	 -3.408585	 0.170602	 1.310038
C	 -4.878474	 -1.753897	 0.628360
H	 -5.021485	 -0.344758	 -0.988812
H	 -3.654094	 -1.415707	 -1.105834
H	 -5.504605	 -2.501772	 0.151652
H	 -5.499752	 -1.197562	 1.324563
H	 -4.121756	 -2.276239	 1.206989
C	 4.728119	 -1.109107	 -0.004993
H	 4.882018	 -1.033965	 -1.071845
H	 5.068212	 -2.067527	 0.355250
H	 5.265056	 -0.311663	 0.488280

	symmetry c1
}
set optking {
	frozen_dihedral = ("
		17 14 11 15,
		15 11 8 5,
		6 3 5 9,
		11 8 5 9,
		2 4 26 27,
		1 2 4 26,
		6 3 2 1
	")
}

ee = energy('scf')
oeprop('DIPOLE', 'QUADRUPOLE', 'MULLIKEN_CHARGES')
f=open( 'psi4out.xyz', 'w' )
f.write( "29  " )
f.write( str(ee) + "\n" )
f.write( MOL.save_string_xyz() )
f.close()
--------------------------------------------------------------------------

  Memory set to   2.000 GiB by Python script.

*** tstart() called on cx1-3-14-1.cx1.hpc.ic.ac.uk
*** at Tue Jul  5 16:49:22 2016


         ---------------------------------------------------------
                                   SCF
            by Justin Turney, Rob Parrish, and Andy Simmonett
                              RHF Reference
                        1 Threads,   2000 MiB Core
         ---------------------------------------------------------

  ==> Geometry <==

    Molecular point group: c1
    Full point group: C1

    Geometry (in Angstrom), charge = 0, multiplicity = 1:

       Center              X                  Y                   Z               Mass       
    ------------   -----------------  -----------------  -----------------  -----------------
           O          3.147820994223     1.068882025569    -0.656493857325    15.994914619560
           C          2.623030994223     0.156412025569    -0.104176857325    12.000000000000
           C          1.167217994223     0.084684025569     0.288573142675    12.000000000000
           O          3.269744994223    -0.947858974431     0.247926142675    15.994914619560
           C          0.376953994223     1.329927025569    -0.107618857325    12.000000000000
           H          0.760383994223    -0.815297974431    -0.160547857325     1.007825032070
           H          1.130051994223    -0.076805974431     1.362927142675     1.007825032070
           C         -1.077051005777     1.318012025569     0.376346142675    12.000000000000
           H          0.404372994223     1.443648025569    -1.187171857325     1.007825032070
           H          0.879131994223     2.201597025569     0.297882142675     1.007825032070
           C         -1.961596005777     0.244411025569    -0.264021857325    12.000000000000
           H         -1.509365005777     2.293929025569     0.167985142675     1.007825032070
           H         -1.097804005777     1.204243025569     1.459229142675     1.007825032070
           C         -3.425805005777     0.344110025569     0.168588142675    12.000000000000
           H         -1.900341005777     0.330225025569    -1.347858857325     1.007825032070
           H         -1.588499005777    -0.746286974431    -0.014445857325     1.007825032070
           C         -4.318150005777    -0.727042974431    -0.461080857325    12.000000000000
           H         -3.811046005777     1.328993025569    -0.089925857325     1.007825032070
           H         -3.486743005777     0.269129025569     1.253191142675     1.007825032070
           C         -4.956632005777    -1.655369974431     0.571513142675    12.000000000000
           H         -5.099643005777    -0.246230974431    -1.045658857325     1.007825032070
           H         -3.732252005777    -1.317179974431    -1.162680857325     1.007825032070
           H         -5.582763005777    -2.403244974431     0.094805142675     1.007825032070
           H         -5.577910005777    -1.099034974431     1.267716142675     1.007825032070
           H         -4.199914005777    -2.177711974431     1.150142142675     1.007825032070
           C          4.649960994223    -1.010579974431    -0.061839857325    12.000000000000
           H          4.803859994223    -0.935437974431    -1.128691857325     1.007825032070
           H          4.990053994223    -1.968999974431     0.298403142675     1.007825032070
           H          5.186897994223    -0.213135974431     0.431433142675     1.007825032070

  Running in c1 symmetry.

  Rotational constants: A =      0.08690  B =      0.01003  C =      0.00930 [cm^-1]
  Rotational constants: A =   2605.09213  B =    300.71773  C =    278.87243 [MHz]
  Nuclear repulsion =  613.081227794392362

  Charge       = 0
  Multiplicity = 1
  Electrons    = 88
  Nalpha       = 44
  Nbeta        = 44

  ==> Algorithm <==

  SCF Algorithm Type is DF.
  DIIS enabled.
  MOM disabled.
  Fractional occupation disabled.
  Guess Type is CORE.
  Energy threshold   = 1.00e-06
  Density threshold  = 1.00e-06
  Integral threshold = 0.00e+00

  ==> Primary Basis <==

  Basis Set: 6-31G*
    Number of shells: 102
    Number of basis function: 201
    Number of Cartesian functions: 201
    Spherical Harmonics?: false
    Max angular momentum: 2

  ==> Pre-Iterations <==

   -------------------------------------------------------
    Irrep   Nso     Nmo     Nalpha   Nbeta   Ndocc  Nsocc
   -------------------------------------------------------
     A        201     201       0       0       0       0
   -------------------------------------------------------
    Total     201     201      44      44      44       0
   -------------------------------------------------------

 OEINTS: Overlap, kinetic, potential, dipole, and quadrupole integrals
         stored in file 35.

  ==> Integral Setup <==

  ==> DFJK: Density-Fitted J/K Matrices <==

    J tasked:                  Yes
    K tasked:                  Yes
    wK tasked:                  No
    OpenMP threads:              1
    Integrals threads:           1
    Memory (MB):              1430
    Algorithm:                Core
    Integral Cache:           NONE
    Schwarz Cutoff:          1E-12
    Fitting Condition:       1E-12

   => Auxiliary Basis Set <=

  Basis Set: 
    Number of shells: 426
    Number of basis function: 1341
    Number of Cartesian functions: 1341
    Spherical Harmonics?: false
    Max angular momentum: 3

  Minimum eigenvalue in the overlap matrix is 2.4905694254E-03.
  Using Symmetric Orthogonalization.
  SCF Guess: Core (One-Electron) Hamiltonian.

  ==> Iterations <==

                           Total Energy        Delta E     RMS |[F,P]|

   @DF-RHF iter   1:  -323.65881111863234   -3.23659e+02   5.93712e-02 
   @DF-RHF iter   2:   113.33947993153004    4.36998e+02   8.09199e-02 DIIS
   @DF-RHF iter   3:  -202.22032241138106   -3.15560e+02   5.72402e-02 DIIS
   @DF-RHF iter   4:  -295.54060028348533   -9.33203e+01   5.54905e-02 DIIS
   @DF-RHF iter   5:  -416.15671797604409   -1.20616e+02   4.75783e-02 DIIS
   @DF-RHF iter   6:  -484.48848404819705   -6.83318e+01   1.32749e-02 DIIS
   @DF-RHF iter   7:  -410.68678647105423    7.38017e+01   3.32764e-02 DIIS
   @DF-RHF iter   8:  -500.22204494763400   -8.95353e+01   6.56123e-03 DIIS
   @DF-RHF iter   9:  -500.98230816227783   -7.60263e-01   1.40894e-03 DIIS
   @DF-RHF iter  10:  -501.03072326418965   -4.84151e-02   5.64924e-04 DIIS
   @DF-RHF iter  11:  -501.03612120747971   -5.39794e-03   2.66211e-04 DIIS
   @DF-RHF iter  12:  -501.03779758876863   -1.67638e-03   1.08647e-04 DIIS
   @DF-RHF iter  13:  -501.03814757033638   -3.49982e-04   4.93354e-05 DIIS
   @DF-RHF iter  14:  -501.03820932088797   -6.17506e-05   1.96676e-05 DIIS
   @DF-RHF iter  15:  -501.03822145380605   -1.21329e-05   3.74173e-06 DIIS
   @DF-RHF iter  16:  -501.03822195192583   -4.98120e-07   8.95021e-07 DIIS

  ==> Post-Iterations <==

    Orbital Energies (a.u.)
    -----------------------

    Doubly Occupied:                                                      

       1A    -20.603364     2A    -20.545217     3A    -11.371998  
       4A    -11.280684     5A    -11.234731     6A    -11.218969  
       7A    -11.217217     8A    -11.216318     9A    -11.214169  
      10A    -11.212824    11A    -11.209449    12A     -1.469072  
      13A     -1.362516    14A     -1.098138    15A     -1.066902  
      16A     -1.019017    17A     -0.976706    18A     -0.928256  
      19A     -0.863708    20A     -0.799945    21A     -0.788988  
      22A     -0.763938    23A     -0.700747    24A     -0.682370  
      25A     -0.672032    26A     -0.646158    27A     -0.625609  
      28A     -0.609900    29A     -0.595347    30A     -0.585621  
      31A     -0.562804    32A     -0.552608    33A     -0.532164  
      34A     -0.529657    35A     -0.517665    36A     -0.506892  
      37A     -0.501035    38A     -0.475963    39A     -0.472035  
      40A     -0.462208    41A     -0.455889    42A     -0.452993  
      43A     -0.440230    44A     -0.434719  

    Virtual:                                                              

      45A      0.199206    46A      0.225326    47A      0.238862  
      48A      0.256318    49A      0.264183    50A      0.269203  
      51A      0.282875    52A      0.291791    53A      0.303693  
      54A      0.309469    55A      0.316981    56A      0.320608  
      57A      0.325059    58A      0.327897    59A      0.334619  
      60A      0.339003    61A      0.345416    62A      0.352071  
      63A      0.365462    64A      0.378172    65A      0.396468  
      66A      0.426174    67A      0.438803    68A      0.454879  
      69A      0.468234    70A      0.472597    71A      0.493485  
      72A      0.536707    73A      0.585454    74A      0.711960  
      75A      0.717758    76A      0.726194    77A      0.734524  
      78A      0.736240    79A      0.760244    80A      0.769541  
      81A      0.775422    82A      0.793635    83A      0.796641  
      84A      0.807790    85A      0.836889    86A      0.850918  
      87A      0.890123    88A      0.904643    89A      0.926205  
      90A      0.947309    91A      0.951633    92A      0.979265  
      93A      0.984099    94A      1.000146    95A      1.019063  
      96A      1.047133    97A      1.075944    98A      1.096095  
      99A      1.115759   100A      1.126372   101A      1.127421  
     102A      1.134869   103A      1.141933   104A      1.145948  
     105A      1.154994   106A      1.164284   107A      1.172200  
     108A      1.178071   109A      1.186417   110A      1.193750  
     111A      1.200027   112A      1.211896   113A      1.219140  
     114A      1.223378   115A      1.237997   116A      1.241646  
     117A      1.260960   118A      1.266782   119A      1.275162  
     120A      1.283477   121A      1.293262   122A      1.316610  
     123A      1.377037   124A      1.384070   125A      1.417409  
     126A      1.461287   127A      1.510157   128A      1.560275  
     129A      1.637309   130A      1.664684   131A      1.682563  
     132A      1.713993   133A      1.735505   134A      1.783510  
     135A      1.804442   136A      1.858544   137A      1.869192  
     138A      1.890153   139A      1.929864   140A      1.949375  
     141A      2.006422   142A      2.015342   143A      2.032405  
     144A      2.079748   145A      2.097002   146A      2.140116  
     147A      2.156972   148A      2.180854   149A      2.203592  
     150A      2.217959   151A      2.234336   152A      2.255674  
     153A      2.276356   154A      2.292852   155A      2.308817  
     156A      2.315477   157A      2.357252   158A      2.362416  
     159A      2.375282   160A      2.400155   161A      2.405001  
     162A      2.435725   163A      2.448540   164A      2.483051  
     165A      2.520826   166A      2.562915   167A      2.601110  
     168A      2.646679   169A      2.654679   170A      2.668251  
     171A      2.687623   172A      2.713424   173A      2.736222  
     174A      2.746563   175A      2.776372   176A      2.804839  
     177A      2.829537   178A      2.849065   179A      2.906270  
     180A      2.932380   181A      2.963869   182A      3.021082  
     183A      3.041394   184A      3.067545   185A      3.133823  
     186A      3.163605   187A      3.184655   188A      3.349880  
     189A      3.450994   190A      3.581185   191A      4.416983  
     192A      4.540388   193A      4.584876   194A      4.621013  
     195A      4.669492   196A      4.729861   197A      4.789135  
     198A      4.842736   199A      4.899909   200A      4.974825  
     201A      5.034418  

    Final Occupation by Irrep:
              A 
    DOCC [    44 ]

  Energy converged.

  @DF-RHF Final Energy:  -501.03822195192583

   => Energetics <=

    Nuclear Repulsion Energy =            613.0812277943923618
    One-Electron Energy =               -1897.2853229684501457
    Two-Electron Energy =                 783.1658732221309265
    DFT Exchange-Correlation Energy =       0.0000000000000000
    Empirical Dispersion Energy =           0.0000000000000000
    PCM Polarization Energy =               0.0000000000000000
    EFP Energy =                            0.0000000000000000
    Total Energy =                       -501.0382219519268574

    Alert: EFP and PCM quantities not currently incorporated into SCF psivars.

Properties will be evaluated at   0.000000,   0.000000,   0.000000 Bohr
  ==> Properties <==


Properties computed using the SCF density matrix

  Nuclear Dipole Moment: (a.u.)
     X:   -18.1856      Y:    -2.7440      Z:     1.5418

  Electronic Dipole Moment: (a.u.)
     X:    18.0226      Y:     2.1504      Z:    -1.2448

  Dipole Moment: (a.u.)
     X:    -0.1631      Y:    -0.5936      Z:     0.2970     Total:     0.6835

  Dipole Moment: (Debye)
     X:    -0.4144      Y:    -1.5087      Z:     0.7549     Total:     1.7372


  Saving occupied orbitals to File 180.

*** tstop() called on cx1-3-14-1.cx1.hpc.ic.ac.uk at Tue Jul  5 16:50:04 2016
Module time:
	user time   =      41.85 seconds =       0.70 minutes
	system time =       0.34 seconds =       0.01 minutes
	total time  =         42 seconds =       0.70 minutes
Total time:
	user time   =      41.85 seconds =       0.70 minutes
	system time =       0.34 seconds =       0.01 minutes
	total time  =         42 seconds =       0.70 minutes


Properties will be evaluated at   0.000000,   0.000000,   0.000000 Bohr

Properties computed using the  density matrix

  Nuclear Dipole Moment: (a.u.)
     X:   -18.1856      Y:    -2.7440      Z:     1.5418

  Electronic Dipole Moment: (a.u.)
     X:    18.0226      Y:     2.1504      Z:    -1.2448

  Dipole Moment: (a.u.)
     X:    -0.1631      Y:    -0.5936      Z:     0.2970     Total:     0.6835

  Dipole Moment: (Debye)
     X:    -0.4144      Y:    -1.5087      Z:     0.7549     Total:     1.7372

  Quadrupole Moment: (Debye Ang)
    XX:   -66.5874     YY:   -73.0910     ZZ:   -70.4518
    XY:    -8.1660     XZ:     3.0946     YZ:     2.6054

  Traceless Quadrupole Moment: (Debye Ang)
    XX:     3.4560     YY:    -3.0476     ZZ:    -0.4084
    XY:    -8.1660     XZ:     3.0946     YZ:     2.6054

  Mulliken Charges: (a.u.)
   Center  Symbol    Alpha    Beta     Spin     Total
       1     O     4.28594  4.28594  0.00000 -0.57188
       2     C     2.60485  2.60485  0.00000  0.79031
       3     C     3.20967  3.20967  0.00000 -0.41935
       4     O     4.30747  4.30747  0.00000 -0.61494
       5     C     3.15372  3.15372  0.00000 -0.30744
       6     H     0.39896  0.39896  0.00000  0.20207
       7     H     0.40125  0.40125  0.00000  0.19750
       8     C     3.15719  3.15719  0.00000 -0.31438
       9     H     0.41316  0.41316  0.00000  0.17368
      10     H     0.40880  0.40880  0.00000  0.18240
      11     C     3.15748  3.15748  0.00000 -0.31495
      12     H     0.41820  0.41820  0.00000  0.16359
      13     H     0.42382  0.42382  0.00000  0.15236
      14     C     3.15403  3.15403  0.00000 -0.30806
      15     H     0.42192  0.42192  0.00000  0.15615
      16     H     0.42341  0.42341  0.00000  0.15318
      17     C     3.15455  3.15455  0.00000 -0.30910
      18     H     0.42069  0.42069  0.00000  0.15861
      19     H     0.42091  0.42091  0.00000  0.15819
      20     C     3.24039  3.24039  0.00000 -0.48078
      21     H     0.42009  0.42009  0.00000  0.15982
      22     H     0.42037  0.42037  0.00000  0.15926
      23     H     0.42039  0.42039  0.00000  0.15922
      24     H     0.42117  0.42117  0.00000  0.15766
      25     H     0.42243  0.42243  0.00000  0.15515
      26     C     3.09242  3.09242  0.00000 -0.18484
      27     H     0.40908  0.40908  0.00000  0.18183
      28     H     0.40851  0.40851  0.00000  0.18297
      29     H     0.40912  0.40912  0.00000  0.18177

   Total alpha = 44.00000, Total beta = 44.00000, Total charge = -0.00000


*** PSI4 exiting successfully. Buy a developer a beer!
