    -----------------------------------------------------------------------
          Psi4: An Open-Source Ab Initio Electronic Structure Package
                              Psi4 (no tag) Driver

                          Git: Rev {detached?}  

    J. M. Turney, A. C. Simmonett, R. M. Parrish, E. G. Hohenstein,
    F. A. Evangelista, J. T. Fermann, B. J. Mintz, L. A. Burns, J. J. Wilke,
    M. L. Abrams, N. J. Russ, M. L. Leininger, C. L. Janssen, E. T. Seidl,
    W. D. Allen, H. F. Schaefer, R. A. King, E. F. Valeev, C. D. Sherrill,
    and T. D. Crawford, WIREs Comput. Mol. Sci. 2, 556-565 (2012)
    (doi: 10.1002/wcms.93)

                         Additional Contributions by
    A. E. DePrince, M. Saitow, U. Bozkaya, A. Yu. Sokolov
    -----------------------------------------------------------------------


    Psi4 started on: Tue Jul  5 16:33:20 2016

    Process ID:   4697
    PSI4DATADIR: /export131/home/mjharvey/miniconda3/share
    Memory level set to 256.000 MB

  ==> Input File <==

--------------------------------------------------------------------------
set {
	reference rhf
	basis 6-31G*
}


set_num_threads( 1 )
memory 2 gb

molecule MOL {
0 1

H	 -1.836216	 1.387520	 -0.000064
C	 -1.301823	 0.443321	 -0.000031
O	 -0.003969	 0.658512	 0.000451
O	 -1.829879	 -0.616434	 -0.000857
C	 0.509653	 1.569020	 0.972230
C	 0.021154	 2.952449	 0.600998
H	 1.589378	 1.509848	 0.968957
H	 0.160839	 1.268641	 1.950695
H	 0.373372	 3.233235	 -0.384971
H	 0.391358	 3.678068	 1.317698
H	 -1.062082	 2.991025	 0.601471

	symmetry c1
}
set optking {
	frozen_dihedral = ("
		7 5 3 2
	")
}

ee = energy('scf')
oeprop('DIPOLE', 'QUADRUPOLE', 'MULLIKEN_CHARGES')
f=open( 'psi4out.xyz', 'w' )
f.write( "11  " )
f.write( str(ee) + "\n" )
f.write( MOL.save_string_xyz() )
f.close()
--------------------------------------------------------------------------

  Memory set to   2.000 GiB by Python script.

*** tstart() called on cx1-3-6-1.cx1.hpc.ic.ac.uk
*** at Tue Jul  5 16:33:21 2016


         ---------------------------------------------------------
                                   SCF
            by Justin Turney, Rob Parrish, and Andy Simmonett
                              RHF Reference
                        1 Threads,   2000 MiB Core
         ---------------------------------------------------------

  ==> Geometry <==

    Molecular point group: c1
    Full point group: C1

    Geometry (in Angstrom), charge = 0, multiplicity = 1:

       Center              X                  Y                   Z               Mass       
    ------------   -----------------  -----------------  -----------------  -----------------
           H         -1.309845387740     0.382223216739    -0.315589705768     1.007825032070
           C         -0.775452387740    -0.561975783261    -0.315556705768    12.000000000000
           O          0.522401612260    -0.346784783261    -0.315074705768    15.994914619560
           O         -1.303508387740    -1.621730783261    -0.316382705768    15.994914619560
           C          1.036023612260     0.563723216739     0.656704294232    12.000000000000
           C          0.547524612260     1.947152216739     0.285472294232    12.000000000000
           H          2.115748612260     0.504551216739     0.653431294232     1.007825032070
           H          0.687209612260     0.263344216739     1.635169294232     1.007825032070
           H          0.899742612260     2.227938216739    -0.700496705768     1.007825032070
           H          0.917728612260     2.672771216739     1.002172294232     1.007825032070
           H         -0.535711387740     1.985728216739     0.285945294232     1.007825032070

  Running in c1 symmetry.

  Rotational constants: A =      0.52829  B =      0.09981  C =      0.09103 [cm^-1]
  Rotational constants: A =  15837.65568  B =   2992.29622  C =   2728.93498 [MHz]
  Nuclear repulsion =  179.725584074264248

  Charge       = 0
  Multiplicity = 1
  Electrons    = 40
  Nalpha       = 20
  Nbeta        = 20

  ==> Algorithm <==

  SCF Algorithm Type is DF.
  DIIS enabled.
  MOM disabled.
  Fractional occupation disabled.
  Guess Type is CORE.
  Energy threshold   = 1.00e-06
  Density threshold  = 1.00e-06
  Integral threshold = 0.00e+00

  ==> Primary Basis <==

  Basis Set: 6-31G*
    Number of shells: 42
    Number of basis function: 87
    Number of Cartesian functions: 87
    Spherical Harmonics?: false
    Max angular momentum: 2

  ==> Pre-Iterations <==

   -------------------------------------------------------
    Irrep   Nso     Nmo     Nalpha   Nbeta   Ndocc  Nsocc
   -------------------------------------------------------
     A         87      87       0       0       0       0
   -------------------------------------------------------
    Total      87      87      20      20      20       0
   -------------------------------------------------------

 OEINTS: Overlap, kinetic, potential, dipole, and quadrupole integrals
         stored in file 35.

  ==> Integral Setup <==

  ==> DFJK: Density-Fitted J/K Matrices <==

    J tasked:                  Yes
    K tasked:                  Yes
    wK tasked:                  No
    OpenMP threads:              1
    Integrals threads:           1
    Memory (MB):              1430
    Algorithm:                Core
    Integral Cache:           NONE
    Schwarz Cutoff:          1E-12
    Fitting Condition:       1E-12

   => Auxiliary Basis Set <=

  Basis Set: 
    Number of shells: 174
    Number of basis function: 555
    Number of Cartesian functions: 555
    Spherical Harmonics?: false
    Max angular momentum: 3

  Minimum eigenvalue in the overlap matrix is 5.1011355855E-03.
  Using Symmetric Orthogonalization.
  SCF Guess: Core (One-Electron) Hamiltonian.

  ==> Iterations <==

                           Total Energy        Delta E     RMS |[F,P]|

   @DF-RHF iter   1:  -216.87147260785628   -2.16871e+02   8.28102e-02 
   @DF-RHF iter   2:  -159.90432237615778    5.69672e+01   9.14141e-02 DIIS
   @DF-RHF iter   3:  -249.61567667326523   -8.97114e+01   4.03800e-02 DIIS
   @DF-RHF iter   4:  -238.02646849656452    1.15892e+01   5.98273e-02 DIIS
   @DF-RHF iter   5:  -266.34000865920405   -2.83135e+01   1.14381e-02 DIIS
   @DF-RHF iter   6:  -266.55957335136338   -2.19565e-01   8.95793e-03 DIIS
   @DF-RHF iter   7:  -266.78790692920882   -2.28334e-01   1.69362e-03 DIIS
   @DF-RHF iter   8:  -266.80212139455455   -1.42145e-02   6.22788e-04 DIIS
   @DF-RHF iter   9:  -266.80405651026683   -1.93512e-03   1.80575e-04 DIIS
   @DF-RHF iter  10:  -266.80428014734252   -2.23637e-04   3.61049e-05 DIIS
   @DF-RHF iter  11:  -266.80428943030358   -9.28296e-06   1.25931e-05 DIIS
   @DF-RHF iter  12:  -266.80429057010184   -1.13980e-06   4.02069e-06 DIIS
   @DF-RHF iter  13:  -266.80429071625036   -1.46149e-07   1.73890e-06 DIIS
   @DF-RHF iter  14:  -266.80429074193660   -2.56862e-08   6.54046e-07 DIIS

  ==> Post-Iterations <==

    Orbital Energies (a.u.)
    -----------------------

    Doubly Occupied:                                                      

       1A    -20.601134     2A    -20.562048     3A    -11.378093  
       4A    -11.309525     5A    -11.238340     6A     -1.470807  
       7A     -1.378834     8A     -1.056230     9A     -0.917844  
      10A     -0.819738    11A     -0.744660    12A     -0.689849  
      13A     -0.663702    14A     -0.613493    15A     -0.600088  
      16A     -0.566893    17A     -0.533708    18A     -0.501794  
      19A     -0.461782    20A     -0.446716  

    Virtual:                                                              

      21A      0.170137    22A      0.233876    23A      0.257292  
      24A      0.277493    25A      0.302033    26A      0.307926  
      27A      0.326936    28A      0.371537    29A      0.394795  
      30A      0.475593    31A      0.532260    32A      0.686014  
      33A      0.707322    34A      0.751850    35A      0.767789  
      36A      0.782227    37A      0.847701    38A      0.871221  
      39A      0.915731    40A      0.985485    41A      1.030906  
      42A      1.094199    43A      1.112178    44A      1.132821  
      45A      1.150529    46A      1.175030    47A      1.188435  
      48A      1.236828    49A      1.267364    50A      1.275973  
      51A      1.340228    52A      1.364339    53A      1.406288  
      54A      1.518474    55A      1.595364    56A      1.657901  
      57A      1.729228    58A      1.798969    59A      1.826407  
      60A      1.918166    61A      1.948929    62A      2.053891  
      63A      2.107443    64A      2.153431    65A      2.194433  
      66A      2.214691    67A      2.245109    68A      2.300341  
      69A      2.390768    70A      2.484640    71A      2.567823  
      72A      2.585974    73A      2.656099    74A      2.674896  
      75A      2.771741    76A      2.902243    77A      2.934811  
      78A      3.057834    79A      3.141886    80A      3.207590  
      81A      3.337443    82A      3.473103    83A      4.313464  
      84A      4.382212    85A      4.606660    86A      4.667152  
      87A      4.834614  

    Final Occupation by Irrep:
              A 
    DOCC [    20 ]

  Energy converged.

  @DF-RHF Final Energy:  -266.80429074193660

   => Energetics <=

    Nuclear Repulsion Energy =            179.7255840742642476
    One-Electron Energy =                -719.9491786261581865
    Two-Electron Energy =                 273.4193038099576825
    DFT Exchange-Correlation Energy =       0.0000000000000000
    Empirical Dispersion Energy =           0.0000000000000000
    PCM Polarization Energy =               0.0000000000000000
    EFP Energy =                            0.0000000000000000
    Total Energy =                       -266.8042907419362564

    Alert: EFP and PCM quantities not currently incorporated into SCF psivars.

Properties will be evaluated at   0.000000,   0.000000,   0.000000 Bohr
  ==> Properties <==


Properties computed using the SCF density matrix

  Nuclear Dipole Moment: (a.u.)
     X:     2.5976      Y:     7.5246      Z:     2.3975

  Electronic Dipole Moment: (a.u.)
     X:    -2.0456      Y:    -5.9791      Z:    -1.8472

  Dipole Moment: (a.u.)
     X:     0.5520      Y:     1.5455      Z:     0.5503     Total:     1.7309

  Dipole Moment: (Debye)
     X:     1.4030      Y:     3.9282      Z:     1.3986     Total:     4.3995


  Saving occupied orbitals to File 180.

*** tstop() called on cx1-3-6-1.cx1.hpc.ic.ac.uk at Tue Jul  5 16:33:25 2016
Module time:
	user time   =       3.41 seconds =       0.06 minutes
	system time =       0.03 seconds =       0.00 minutes
	total time  =          4 seconds =       0.07 minutes
Total time:
	user time   =       3.41 seconds =       0.06 minutes
	system time =       0.03 seconds =       0.00 minutes
	total time  =          4 seconds =       0.07 minutes


Properties will be evaluated at   0.000000,   0.000000,   0.000000 Bohr

Properties computed using the  density matrix

  Nuclear Dipole Moment: (a.u.)
     X:     2.5976      Y:     7.5246      Z:     2.3975

  Electronic Dipole Moment: (a.u.)
     X:    -2.0456      Y:    -5.9791      Z:    -1.8472

  Dipole Moment: (a.u.)
     X:     0.5520      Y:     1.5455      Z:     0.5503     Total:     1.7309

  Dipole Moment: (Debye)
     X:     1.4030      Y:     3.9282      Z:     1.3986     Total:     4.3995

  Quadrupole Moment: (Debye Ang)
    XX:   -30.7249     YY:   -34.9113     ZZ:   -28.9489
    XY:    -2.4392     XZ:     1.1121     YZ:    -0.6536

  Traceless Quadrupole Moment: (Debye Ang)
    XX:     0.8035     YY:    -3.3830     ZZ:     2.5795
    XY:    -2.4392     XZ:     1.1121     YZ:    -0.6536

  Mulliken Charges: (a.u.)
   Center  Symbol    Alpha    Beta     Spin     Total
       1     H     0.43395  0.43395  0.00000  0.13210
       2     C     2.72240  2.72240  0.00000  0.55519
       3     O     4.29150  4.29150  0.00000 -0.58301
       4     O     4.24249  4.24249  0.00000 -0.48497
       5     C     3.01225  3.01225  0.00000 -0.02450
       6     C     3.25909  3.25909  0.00000 -0.51819
       7     H     0.39736  0.39736  0.00000  0.20528
       8     H     0.41005  0.41005  0.00000  0.17989
       9     H     0.40463  0.40463  0.00000  0.19074
      10     H     0.41255  0.41255  0.00000  0.17490
      11     H     0.41372  0.41372  0.00000  0.17256

   Total alpha = 20.00000, Total beta = 20.00000, Total charge = -0.00000


*** PSI4 exiting successfully. Buy a developer a beer!
