    -----------------------------------------------------------------------
          Psi4: An Open-Source Ab Initio Electronic Structure Package
                              Psi4 (no tag) Driver

                          Git: Rev {detached?}  

    J. M. Turney, A. C. Simmonett, R. M. Parrish, E. G. Hohenstein,
    F. A. Evangelista, J. T. Fermann, B. J. Mintz, L. A. Burns, J. J. Wilke,
    M. L. Abrams, N. J. Russ, M. L. Leininger, C. L. Janssen, E. T. Seidl,
    W. D. Allen, H. F. Schaefer, R. A. King, E. F. Valeev, C. D. Sherrill,
    and T. D. Crawford, WIREs Comput. Mol. Sci. 2, 556-565 (2012)
    (doi: 10.1002/wcms.93)

                         Additional Contributions by
    A. E. DePrince, M. Saitow, U. Bozkaya, A. Yu. Sokolov
    -----------------------------------------------------------------------


    Psi4 started on: Tue Jul  5 16:33:19 2016

    Process ID:  29182
    PSI4DATADIR: /export131/home/mjharvey/miniconda3/share
    Memory level set to 256.000 MB

  ==> Input File <==

--------------------------------------------------------------------------
set {
	reference rhf
	basis 6-31G*
}


set_num_threads( 1 )
memory 2 gb

molecule MOL {
0 1

H	 -1.551999	 -0.797378	 0.339087
N	 -0.626943	 -0.667432	 -0.000092
C	 -0.368252	 -0.929191	 -1.397690
C	 0.325755	 -0.252874	 0.869779
H	 -1.218629	 -1.413427	 -1.866070
H	 0.487083	 -1.581507	 -1.465600
H	 -0.153316	 -0.009903	 -1.932239
C	 1.674978	 -0.919497	 0.690344
O	 0.127974	 0.574320	 1.716447
H	 2.068026	 -0.726742	 -0.302990
H	 2.359261	 -0.526889	 1.427442
H	 1.590945	 -1.994555	 0.814939

	symmetry c1
}
set optking {
	frozen_dihedral = ("
		4 2 3 5
	")
}

ee = energy('scf')
oeprop('DIPOLE', 'QUADRUPOLE', 'MULLIKEN_CHARGES')
f=open( 'psi4out.xyz', 'w' )
f.write( "12  " )
f.write( str(ee) + "\n" )
f.write( MOL.save_string_xyz() )
f.close()
--------------------------------------------------------------------------

  Memory set to   2.000 GiB by Python script.

*** tstart() called on cx1-3-2-3.cx1.hpc.ic.ac.uk
*** at Tue Jul  5 16:33:20 2016


         ---------------------------------------------------------
                                   SCF
            by Justin Turney, Rob Parrish, and Andy Simmonett
                              RHF Reference
                        1 Threads,   2000 MiB Core
         ---------------------------------------------------------

  ==> Geometry <==

    Molecular point group: c1
    Full point group: C1

    Geometry (in Angstrom), charge = 0, multiplicity = 1:

       Center              X                  Y                   Z               Mass       
    ------------   -----------------  -----------------  -----------------  -----------------
           H         -1.777411023490    -0.352710156823    -0.022207185837     1.007825032070
           N         -0.852355023490    -0.222764156823    -0.361386185837    14.003074004780
           C         -0.593664023490    -0.484523156823    -1.758984185837    12.000000000000
           C          0.100342976510     0.191793843177     0.508484814163    12.000000000000
           H         -1.444041023490    -0.968759156823    -2.227364185837     1.007825032070
           H          0.261670976510    -1.136839156823    -1.826894185837     1.007825032070
           H         -0.378728023490     0.434764843177    -2.293533185837     1.007825032070
           C          1.449565976510    -0.474829156823     0.329049814163    12.000000000000
           O         -0.097438023490     1.018987843177     1.355152814163    15.994914619560
           H          1.842613976510    -0.282074156823    -0.664284185837     1.007825032070
           H          2.133848976510    -0.082221156823     1.066147814163     1.007825032070
           H          1.365532976510    -1.549887156823     0.453644814163     1.007825032070

  Running in c1 symmetry.

  Rotational constants: A =      0.28805  B =      0.14075  C =      0.10196 [cm^-1]
  Rotational constants: A =   8635.66689  B =   4219.62881  C =   3056.63682 [MHz]
  Nuclear repulsion =  181.895981594833586

  Charge       = 0
  Multiplicity = 1
  Electrons    = 40
  Nalpha       = 20
  Nbeta        = 20

  ==> Algorithm <==

  SCF Algorithm Type is DF.
  DIIS enabled.
  MOM disabled.
  Fractional occupation disabled.
  Guess Type is CORE.
  Energy threshold   = 1.00e-06
  Density threshold  = 1.00e-06
  Integral threshold = 0.00e+00

  ==> Primary Basis <==

  Basis Set: 6-31G*
    Number of shells: 44
    Number of basis function: 89
    Number of Cartesian functions: 89
    Spherical Harmonics?: false
    Max angular momentum: 2

  ==> Pre-Iterations <==

   -------------------------------------------------------
    Irrep   Nso     Nmo     Nalpha   Nbeta   Ndocc  Nsocc
   -------------------------------------------------------
     A         89      89       0       0       0       0
   -------------------------------------------------------
    Total      89      89      20      20      20       0
   -------------------------------------------------------

 OEINTS: Overlap, kinetic, potential, dipole, and quadrupole integrals
         stored in file 35.

  ==> Integral Setup <==

  ==> DFJK: Density-Fitted J/K Matrices <==

    J tasked:                  Yes
    K tasked:                  Yes
    wK tasked:                  No
    OpenMP threads:              1
    Integrals threads:           1
    Memory (MB):              1430
    Algorithm:                Core
    Integral Cache:           NONE
    Schwarz Cutoff:          1E-12
    Fitting Condition:       1E-12

   => Auxiliary Basis Set <=

  Basis Set: 
    Number of shells: 183
    Number of basis function: 580
    Number of Cartesian functions: 580
    Spherical Harmonics?: false
    Max angular momentum: 3

  Minimum eigenvalue in the overlap matrix is 3.9933655447E-03.
  Using Symmetric Orthogonalization.
  SCF Guess: Core (One-Electron) Hamiltonian.

  ==> Iterations <==

                           Total Energy        Delta E     RMS |[F,P]|

   @DF-RHF iter   1:  -193.96690009382741   -1.93967e+02   8.97656e-02 
   @DF-RHF iter   2:  -185.69362405454234    8.27328e+00   6.13412e-02 DIIS
   @DF-RHF iter   3:  -211.19533718623057   -2.55017e+01   7.09744e-02 DIIS
   @DF-RHF iter   4:  -236.47780700453234   -2.52825e+01   3.97094e-02 DIIS
   @DF-RHF iter   5:  -245.24310880634306   -8.76530e+00   1.82472e-02 DIIS
   @DF-RHF iter   6:  -246.70488135816839   -1.46177e+00   7.36873e-03 DIIS
   @DF-RHF iter   7:  -246.94647694549838   -2.41596e-01   2.50842e-03 DIIS
   @DF-RHF iter   8:  -246.98006715521780   -3.35902e-02   8.31168e-04 DIIS
   @DF-RHF iter   9:  -246.98365209510035   -3.58494e-03   3.06655e-04 DIIS
   @DF-RHF iter  10:  -246.98440396205456   -7.51867e-04   9.88429e-05 DIIS
   @DF-RHF iter  11:  -246.98451833733645   -1.14375e-04   3.26911e-05 DIIS
   @DF-RHF iter  12:  -246.98453287323878   -1.45359e-05   1.93590e-05 DIIS
   @DF-RHF iter  13:  -246.98453508276373   -2.20952e-06   4.48869e-06 DIIS
   @DF-RHF iter  14:  -246.98453532214734   -2.39384e-07   1.54102e-06 DIIS
   @DF-RHF iter  15:  -246.98453534442353   -2.22762e-08   2.91943e-07 DIIS

  ==> Post-Iterations <==

    Orbital Energies (a.u.)
    -----------------------

    Doubly Occupied:                                                      

       1A    -20.526425     2A    -15.567669     3A    -11.344283  
       4A    -11.267782     5A    -11.226266     6A     -1.387282  
       7A     -1.228696     8A     -1.002699     9A     -0.952004  
      10A     -0.786026    11A     -0.676062    12A     -0.660255  
      13A     -0.639814    14A     -0.594524    15A     -0.578556  
      16A     -0.565712    17A     -0.553951    18A     -0.495743  
      19A     -0.415798    20A     -0.379534  

    Virtual:                                                              

      21A      0.183943    22A      0.226223    23A      0.253126  
      24A      0.284390    25A      0.306210    26A      0.315518  
      27A      0.334849    28A      0.344806    29A      0.382892  
      30A      0.420721    31A      0.507998    32A      0.583637  
      33A      0.711263    34A      0.727193    35A      0.751615  
      36A      0.796478    37A      0.837920    38A      0.856300  
      39A      0.873943    40A      0.943744    41A      0.977407  
      42A      1.027412    43A      1.059388    44A      1.108452  
      45A      1.117661    46A      1.143474    47A      1.157122  
      48A      1.165272    49A      1.190671    50A      1.213410  
      51A      1.239089    52A      1.275270    53A      1.323190  
      54A      1.333509    55A      1.376714    56A      1.419154  
      57A      1.529244    58A      1.624733    59A      1.741404  
      60A      1.796166    61A      1.822669    62A      1.929885  
      63A      2.081252    64A      2.100394    65A      2.114967  
      66A      2.194555    67A      2.216479    68A      2.261098  
      69A      2.316274    70A      2.383556    71A      2.420961  
      72A      2.470695    73A      2.488974    74A      2.591592  
      75A      2.645294    76A      2.713834    77A      2.751799  
      78A      2.779497    79A      2.989882    80A      2.992701  
      81A      3.068982    82A      3.282361    83A      3.375423  
      84A      3.496761    85A      4.336098    86A      4.431824  
      87A      4.635265    88A      4.696206    89A      4.904007  

    Final Occupation by Irrep:
              A 
    DOCC [    20 ]

  Energy converged.

  @DF-RHF Final Energy:  -246.98453534442353

   => Energetics <=

    Nuclear Repulsion Energy =            181.8959815948335859
    One-Electron Energy =                -696.0628855873740122
    Two-Electron Energy =                 267.1823686481164941
    DFT Exchange-Correlation Energy =       0.0000000000000000
    Empirical Dispersion Energy =           0.0000000000000000
    PCM Polarization Energy =               0.0000000000000000
    EFP Energy =                            0.0000000000000000
    Total Energy =                       -246.9845353444239890

    Alert: EFP and PCM quantities not currently incorporated into SCF psivars.

Properties will be evaluated at   0.000000,   0.000000,   0.000000 Bohr
  ==> Properties <==


Properties computed using the SCF density matrix

  Nuclear Dipole Moment: (a.u.)
     X:     1.8802      Y:    -3.6860      Z:    -5.1621

  Electronic Dipole Moment: (a.u.)
     X:    -1.9147      Y:     2.6360      Z:     3.9925

  Dipole Moment: (a.u.)
     X:    -0.0345      Y:    -1.0500      Z:    -1.1696     Total:     1.5722

  Dipole Moment: (Debye)
     X:    -0.0877      Y:    -2.6688      Z:    -2.9729     Total:     3.9961


  Saving occupied orbitals to File 180.

*** tstop() called on cx1-3-2-3.cx1.hpc.ic.ac.uk at Tue Jul  5 16:33:25 2016
Module time:
	user time   =       5.26 seconds =       0.09 minutes
	system time =       0.03 seconds =       0.00 minutes
	total time  =          5 seconds =       0.08 minutes
Total time:
	user time   =       5.26 seconds =       0.09 minutes
	system time =       0.03 seconds =       0.00 minutes
	total time  =          5 seconds =       0.08 minutes


Properties will be evaluated at   0.000000,   0.000000,   0.000000 Bohr

Properties computed using the  density matrix

  Nuclear Dipole Moment: (a.u.)
     X:     1.8802      Y:    -3.6860      Z:    -5.1621

  Electronic Dipole Moment: (a.u.)
     X:    -1.9147      Y:     2.6360      Z:     3.9925

  Dipole Moment: (a.u.)
     X:    -0.0345      Y:    -1.0500      Z:    -1.1696     Total:     1.5722

  Dipole Moment: (Debye)
     X:    -0.0877      Y:    -2.6688      Z:    -2.9729     Total:     3.9961

  Quadrupole Moment: (Debye Ang)
    XX:   -27.0656     YY:   -33.4954     ZZ:   -32.7319
    XY:     1.2626     XZ:     1.0056     YZ:    -3.0242

  Traceless Quadrupole Moment: (Debye Ang)
    XX:     4.0320     YY:    -2.3977     ZZ:    -1.6343
    XY:     1.2626     XZ:     1.0056     YZ:    -3.0242

  Mulliken Charges: (a.u.)
   Center  Symbol    Alpha    Beta     Spin     Total
       1     H     0.30436  0.30436  0.00000  0.39129
       2     N     3.89313  3.89313  0.00000 -0.78626
       3     C     3.14183  3.14183  0.00000 -0.28365
       4     C     2.64110  2.64110  0.00000  0.71780
       5     H     0.40872  0.40872  0.00000  0.18255
       6     H     0.41316  0.41316  0.00000  0.17368
       7     H     0.41131  0.41131  0.00000  0.17739
       8     C     3.29564  3.29564  0.00000 -0.59129
       9     O     4.28211  4.28211  0.00000 -0.56422
      10     H     0.40862  0.40862  0.00000  0.18275
      11     H     0.39454  0.39454  0.00000  0.21091
      12     H     0.40548  0.40548  0.00000  0.18905

   Total alpha = 20.00000, Total beta = 20.00000, Total charge =  0.00000


*** PSI4 exiting successfully. Buy a developer a beer!
