    -----------------------------------------------------------------------
          Psi4: An Open-Source Ab Initio Electronic Structure Package
                              Psi4 (no tag) Driver

                          Git: Rev {detached?}  

    J. M. Turney, A. C. Simmonett, R. M. Parrish, E. G. Hohenstein,
    F. A. Evangelista, J. T. Fermann, B. J. Mintz, L. A. Burns, J. J. Wilke,
    M. L. Abrams, N. J. Russ, M. L. Leininger, C. L. Janssen, E. T. Seidl,
    W. D. Allen, H. F. Schaefer, R. A. King, E. F. Valeev, C. D. Sherrill,
    and T. D. Crawford, WIREs Comput. Mol. Sci. 2, 556-565 (2012)
    (doi: 10.1002/wcms.93)

                         Additional Contributions by
    A. E. DePrince, M. Saitow, U. Bozkaya, A. Yu. Sokolov
    -----------------------------------------------------------------------


    Psi4 started on: Tue Jul  5 16:28:59 2016

    Process ID:  20931
    PSI4DATADIR: /export131/home/mjharvey/miniconda3/share
    Memory level set to 256.000 MB

  ==> Input File <==

--------------------------------------------------------------------------
set {
	reference rhf
	basis 6-31G*
}


set_num_threads( 1 )
memory 2 gb

molecule MOL {
0 1

H	 -2.273092	 1.173159	 0.000295
O	 -1.438904	 1.618192	 0.000114
C	 -0.409536	 0.736003	 0.000030
C	 -0.731406	 -0.594937	 -0.214906
C	 0.910805	 1.130955	 0.204120
H	 -1.762096	 -0.856194	 -0.367924
C	 0.265584	 -1.551666	 -0.228731
C	 1.892656	 0.147801	 0.185011
C	 1.259916	 2.583589	 0.438607
H	 0.009261	 -2.582590	 -0.396029
C	 1.586575	 -1.184524	 -0.028317
H	 2.917613	 0.436675	 0.341088
H	 0.775449	 2.979789	 1.328697
H	 2.326983	 2.703056	 0.576701
H	 0.973464	 3.211662	 -0.402503
H	 2.367163	 -1.923301	 -0.037758

	symmetry c1
}
ee = energy('scf')
oeprop('DIPOLE', 'QUADRUPOLE', 'MULLIKEN_CHARGES')
f=open( 'psi4out.xyz', 'w' )
f.write( "16  " )
f.write( str(ee) + "\n" )
f.write( MOL.save_string_xyz() )
f.close()
--------------------------------------------------------------------------

  Memory set to   2.000 GiB by Python script.

*** tstart() called on cx1-3-15-2.cx1.hpc.ic.ac.uk
*** at Tue Jul  5 16:28:59 2016


         ---------------------------------------------------------
                                   SCF
            by Justin Turney, Rob Parrish, and Andy Simmonett
                              RHF Reference
                        1 Threads,   2000 MiB Core
         ---------------------------------------------------------

  ==> Geometry <==

    Molecular point group: c1
    Full point group: C1

    Geometry (in Angstrom), charge = 0, multiplicity = 1:

       Center              X                  Y                   Z               Mass       
    ------------   -----------------  -----------------  -----------------  -----------------
           H         -2.640086104671     0.744942700104    -0.048959478475     1.007825032070
           O         -1.805898104671     1.189975700104    -0.049140478475    15.994914619560
           C         -0.776530104671     0.307786700104    -0.049224478475    12.000000000000
           C         -1.098400104671    -1.023153299896    -0.264160478475    12.000000000000
           C          0.543810895329     0.702738700104     0.154865521525    12.000000000000
           H         -2.129090104671    -1.284410299896    -0.417178478475     1.007825032070
           C         -0.101410104671    -1.979882299896    -0.277985478475    12.000000000000
           C          1.525661895329    -0.280415299896     0.135756521525    12.000000000000
           C          0.892921895329     2.155372700104     0.389352521525    12.000000000000
           H         -0.357733104671    -3.010806299896    -0.445283478475     1.007825032070
           C          1.219580895329    -1.612740299896    -0.077571478475    12.000000000000
           H          2.550618895329     0.008458700104     0.291833521525     1.007825032070
           H          0.408454895329     2.551572700104     1.279442521525     1.007825032070
           H          1.959988895329     2.274839700104     0.527446521525     1.007825032070
           H          0.606469895329     2.783445700104    -0.451757478475     1.007825032070
           H          2.000168895329    -2.351517299896    -0.087012478475     1.007825032070

  Running in c1 symmetry.

  Rotational constants: A =      0.10609  B =      0.07564  C =      0.04452 [cm^-1]
  Rotational constants: A =   3180.44148  B =   2267.62190  C =   1334.82464 [MHz]
  Nuclear repulsion =  349.622072627204830

  Charge       = 0
  Multiplicity = 1
  Electrons    = 58
  Nalpha       = 29
  Nbeta        = 29

  ==> Algorithm <==

  SCF Algorithm Type is DF.
  DIIS enabled.
  MOM disabled.
  Fractional occupation disabled.
  Guess Type is CORE.
  Energy threshold   = 1.00e-06
  Density threshold  = 1.00e-06
  Integral threshold = 0.00e+00

  ==> Primary Basis <==

  Basis Set: 6-31G*
    Number of shells: 64
    Number of basis function: 136
    Number of Cartesian functions: 136
    Spherical Harmonics?: false
    Max angular momentum: 2

  ==> Pre-Iterations <==

   -------------------------------------------------------
    Irrep   Nso     Nmo     Nalpha   Nbeta   Ndocc  Nsocc
   -------------------------------------------------------
     A        136     136       0       0       0       0
   -------------------------------------------------------
    Total     136     136      29      29      29       0
   -------------------------------------------------------

 OEINTS: Overlap, kinetic, potential, dipole, and quadrupole integrals
         stored in file 35.

  ==> Integral Setup <==

  ==> DFJK: Density-Fitted J/K Matrices <==

    J tasked:                  Yes
    K tasked:                  Yes
    wK tasked:                  No
    OpenMP threads:              1
    Integrals threads:           1
    Memory (MB):              1430
    Algorithm:                Core
    Integral Cache:           NONE
    Schwarz Cutoff:          1E-12
    Fitting Condition:       1E-12

   => Auxiliary Basis Set <=

  Basis Set: 
    Number of shells: 264
    Number of basis function: 848
    Number of Cartesian functions: 848
    Spherical Harmonics?: false
    Max angular momentum: 3

  Minimum eigenvalue in the overlap matrix is 3.9821315134E-04.
  Using Symmetric Orthogonalization.
  SCF Guess: Core (One-Electron) Hamiltonian.

  ==> Iterations <==

                           Total Energy        Delta E     RMS |[F,P]|

   @DF-RHF iter   1:  -269.63821541258710   -2.69638e+02   6.76155e-02 
   @DF-RHF iter   2:  -243.53804492261497    2.61002e+01   5.43928e-02 DIIS
   @DF-RHF iter   3:  -287.75793874774797   -4.42199e+01   5.31731e-02 DIIS
   @DF-RHF iter   4:  -335.21451526776082   -4.74566e+01   2.95723e-02 DIIS
   @DF-RHF iter   5:  -343.59701511871242   -8.38250e+00   9.29638e-03 DIIS
   @DF-RHF iter   6:  -344.51360937018001   -9.16594e-01   2.73316e-03 DIIS
   @DF-RHF iter   7:  -344.58489379462446   -7.12844e-02   6.82376e-04 DIIS
   @DF-RHF iter   8:  -344.59049494177896   -5.60115e-03   3.27592e-04 DIIS
   @DF-RHF iter   9:  -344.59180058368577   -1.30564e-03   1.25247e-04 DIIS
   @DF-RHF iter  10:  -344.59208671630824   -2.86133e-04   4.10690e-05 DIIS
   @DF-RHF iter  11:  -344.59213603498699   -4.93187e-05   1.84404e-05 DIIS
   @DF-RHF iter  12:  -344.59214967987862   -1.36449e-05   9.15863e-06 DIIS
   @DF-RHF iter  13:  -344.59215428106097   -4.60118e-06   3.02546e-06 DIIS
   @DF-RHF iter  14:  -344.59215474383984   -4.62779e-07   8.94078e-07 DIIS

  ==> Post-Iterations <==

    Orbital Energies (a.u.)
    -----------------------

    Doubly Occupied:                                                      

       1A    -20.586666     2A    -11.293504     3A    -11.232795  
       4A    -11.231873     5A    -11.230026     6A    -11.224411  
       7A    -11.219836     8A    -11.214982     9A     -1.406310  
      10A     -1.148599    11A     -1.043472    12A     -1.003382  
      13A     -0.928867    14A     -0.843670    15A     -0.801538  
      16A     -0.732135    17A     -0.672148    18A     -0.652363  
      19A     -0.604537    20A     -0.595483    21A     -0.578092  
      22A     -0.556634    23A     -0.549864    24A     -0.534633  
      25A     -0.501799    26A     -0.479295    27A     -0.472315  
      28A     -0.330323    29A     -0.303883  

    Virtual:                                                              

      30A      0.147691    31A      0.163633    32A      0.221502  
      33A      0.248934    34A      0.267109    35A      0.297661  
      36A      0.324590    37A      0.329037    38A      0.330238  
      39A      0.362805    40A      0.401567    41A      0.418908  
      42A      0.451712    43A      0.491375    44A      0.523434  
      45A      0.550469    46A      0.556259    47A      0.697288  
      48A      0.722530    49A      0.733297    50A      0.742456  
      51A      0.761023    52A      0.775967    53A      0.815841  
      54A      0.834044    55A      0.836267    56A      0.848021  
      57A      0.852124    58A      0.881897    59A      0.882221  
      60A      0.920099    61A      0.941578    62A      0.962972  
      63A      1.019789    64A      1.035189    65A      1.046058  
      66A      1.111217    67A      1.119017    68A      1.129105  
      69A      1.158276    70A      1.162084    71A      1.181106  
      72A      1.211077    73A      1.223841    74A      1.230057  
      75A      1.256992    76A      1.268339    77A      1.290514  
      78A      1.332456    79A      1.360400    80A      1.371012  
      81A      1.442982    82A      1.505029    83A      1.507844  
      84A      1.554519    85A      1.614776    86A      1.640274  
      87A      1.670995    88A      1.702317    89A      1.729428  
      90A      1.747011    91A      1.767003    92A      1.787264  
      93A      1.986934    94A      2.053085    95A      2.056924  
      96A      2.100875    97A      2.140157    98A      2.162811  
      99A      2.190934   100A      2.206950   101A      2.252640  
     102A      2.312087   103A      2.313908   104A      2.331607  
     105A      2.429155   106A      2.439088   107A      2.486608  
     108A      2.523279   109A      2.576383   110A      2.622961  
     111A      2.628369   112A      2.656800   113A      2.661409  
     114A      2.679535   115A      2.693618   116A      2.812975  
     117A      2.897525   118A      2.928746   119A      2.952369  
     120A      3.033472   121A      3.067334   122A      3.106988  
     123A      3.145811   124A      3.171543   125A      3.243313  
     126A      3.355416   127A      3.541991   128A      3.841240  
     129A      4.385772   130A      4.534833   131A      4.551311  
     132A      4.614875   133A      4.719793   134A      4.831099  
     135A      4.854863   136A      5.192713  

    Final Occupation by Irrep:
              A 
    DOCC [    29 ]

  Energy converged.

  @DF-RHF Final Energy:  -344.59215474383984

   => Energetics <=

    Nuclear Repulsion Energy =            349.6220726272048296
    One-Electron Energy =               -1160.4815539986357180
    Two-Electron Energy =                 466.2673266275909327
    DFT Exchange-Correlation Energy =       0.0000000000000000
    Empirical Dispersion Energy =           0.0000000000000000
    PCM Polarization Energy =               0.0000000000000000
    EFP Energy =                            0.0000000000000000
    Total Energy =                       -344.5921547438399557

    Alert: EFP and PCM quantities not currently incorporated into SCF psivars.

Properties will be evaluated at   0.000000,   0.000000,   0.000000 Bohr
  ==> Properties <==


Properties computed using the SCF density matrix

  Nuclear Dipole Moment: (a.u.)
     X:     2.2401      Y:     1.6149      Z:     0.6077

  Electronic Dipole Moment: (a.u.)
     X:    -2.5036      Y:    -2.0034      Z:    -0.5803

  Dipole Moment: (a.u.)
     X:    -0.2635      Y:    -0.3885      Z:     0.0274     Total:     0.4702

  Dipole Moment: (Debye)
     X:    -0.6697      Y:    -0.9874      Z:     0.0697     Total:     1.1951


  Saving occupied orbitals to File 180.

*** tstop() called on cx1-3-15-2.cx1.hpc.ic.ac.uk at Tue Jul  5 16:29:11 2016
Module time:
	user time   =      10.93 seconds =       0.18 minutes
	system time =       0.09 seconds =       0.00 minutes
	total time  =         12 seconds =       0.20 minutes
Total time:
	user time   =      10.93 seconds =       0.18 minutes
	system time =       0.09 seconds =       0.00 minutes
	total time  =         12 seconds =       0.20 minutes


Properties will be evaluated at   0.000000,   0.000000,   0.000000 Bohr

Properties computed using the  density matrix

  Nuclear Dipole Moment: (a.u.)
     X:     2.2401      Y:     1.6149      Z:     0.6077

  Electronic Dipole Moment: (a.u.)
     X:    -2.5036      Y:    -2.0034      Z:    -0.5803

  Dipole Moment: (a.u.)
     X:    -0.2635      Y:    -0.3885      Z:     0.0274     Total:     0.4702

  Dipole Moment: (Debye)
     X:    -0.6697      Y:    -0.9874      Z:     0.0697     Total:     1.1951

  Quadrupole Moment: (Debye Ang)
    XX:   -38.7089     YY:   -46.6298     ZZ:   -50.8663
    XY:     2.3888     XZ:     0.8545     YZ:     1.0708

  Traceless Quadrupole Moment: (Debye Ang)
    XX:     6.6927     YY:    -1.2281     ZZ:    -5.4646
    XY:     2.3888     XZ:     0.8545     YZ:     1.0708

  Mulliken Charges: (a.u.)
   Center  Symbol    Alpha    Beta     Spin     Total
       1     H     0.26965  0.26965  0.00000  0.46070
       2     O     4.38410  4.38410  0.00000 -0.76820
       3     C     2.79727  2.79727  0.00000  0.40546
       4     C     3.14330  3.14330  0.00000 -0.28661
       5     C     3.01066  3.01066  0.00000 -0.02133
       6     H     0.40616  0.40616  0.00000  0.18768
       7     C     3.09542  3.09542  0.00000 -0.19084
       8     C     3.10557  3.10557  0.00000 -0.21114
       9     C     3.24376  3.24376  0.00000 -0.48753
      10     H     0.39984  0.39984  0.00000  0.20032
      11     C     3.10885  3.10885  0.00000 -0.21769
      12     H     0.39981  0.39981  0.00000  0.20038
      13     H     0.40912  0.40912  0.00000  0.18176
      14     H     0.41705  0.41705  0.00000  0.16591
      15     H     0.40852  0.40852  0.00000  0.18296
      16     H     0.40092  0.40092  0.00000  0.19816

   Total alpha = 29.00000, Total beta = 29.00000, Total charge = -0.00000


*** PSI4 exiting successfully. Buy a developer a beer!
