    -----------------------------------------------------------------------
          Psi4: An Open-Source Ab Initio Electronic Structure Package
                              Psi4 (no tag) Driver

                          Git: Rev {detached?}  

    J. M. Turney, A. C. Simmonett, R. M. Parrish, E. G. Hohenstein,
    F. A. Evangelista, J. T. Fermann, B. J. Mintz, L. A. Burns, J. J. Wilke,
    M. L. Abrams, N. J. Russ, M. L. Leininger, C. L. Janssen, E. T. Seidl,
    W. D. Allen, H. F. Schaefer, R. A. King, E. F. Valeev, C. D. Sherrill,
    and T. D. Crawford, WIREs Comput. Mol. Sci. 2, 556-565 (2012)
    (doi: 10.1002/wcms.93)

                         Additional Contributions by
    A. E. DePrince, M. Saitow, U. Bozkaya, A. Yu. Sokolov
    -----------------------------------------------------------------------


    Psi4 started on: Tue Jul  5 16:22:17 2016

    Process ID:  25762
    PSI4DATADIR: /export131/home/mjharvey/miniconda3/share
    Memory level set to 256.000 MB

  ==> Input File <==

--------------------------------------------------------------------------
set {
	reference rhf
	basis 6-31G*
}


set_num_threads( 1 )
memory 2 gb

molecule MOL {
0 1

H	 -0.216825	 0.021369	 -3.357402
C	 0.374198	 0.036393	 -2.447010
C	 -0.521757	 -0.028637	 -1.217342
H	 0.969602	 0.942322	 -2.434777
H	 1.053364	 -0.811668	 -2.481329
N	 0.263400	 0.031178	 0.000000
H	 -1.199035	 0.820290	 -1.219355
H	 -1.147901	 -0.924895	 -1.265384
C	 -0.521757	 -0.028637	 1.217342
H	 0.935769	 -0.712709	 0.000000
C	 0.340097	 -0.446381	 2.401295
H	 -0.929914	 0.961053	 1.399848
H	 -1.377286	 -0.705227	 1.128230
H	 1.168449	 0.241365	 2.528587
H	 -0.242327	 -0.462056	 3.317201
H	 0.749850	 -1.442487	 2.254574

	symmetry c1
}
ee = energy('scf')
oeprop('DIPOLE', 'QUADRUPOLE', 'MULLIKEN_CHARGES')
f=open( 'psi4out.xyz', 'w' )
f.write( "16  " )
f.write( str(ee) + "\n" )
f.write( MOL.save_string_xyz() )
f.close()
--------------------------------------------------------------------------

  Memory set to   2.000 GiB by Python script.

*** tstart() called on cx1-3-1-3.cx1.hpc.ic.ac.uk
*** at Tue Jul  5 16:22:17 2016


         ---------------------------------------------------------
                                   SCF
            by Justin Turney, Rob Parrish, and Andy Simmonett
                              RHF Reference
                        1 Threads,   2000 MiB Core
         ---------------------------------------------------------

  ==> Geometry <==

    Molecular point group: c1
    Full point group: C1

    Geometry (in Angstrom), charge = 0, multiplicity = 1:

       Center              X                  Y                   Z               Mass       
    ------------   -----------------  -----------------  -----------------  -----------------
           H         -0.209979647350     0.120691782115    -3.348106465028     1.007825032070
           C          0.381043352650     0.135715782115    -2.437714465028    12.000000000000
           C         -0.514911647350     0.070685782115    -1.208046465028    12.000000000000
           H          0.976447352650     1.041644782115    -2.425481465028     1.007825032070
           H          1.060209352650    -0.712345217885    -2.472033465028     1.007825032070
           N          0.270245352650     0.130500782115     0.009295534972    14.003074004780
           H         -1.192189647350     0.919612782115    -1.210059465028     1.007825032070
           H         -1.141055647350    -0.825572217885    -1.256088465028     1.007825032070
           C         -0.514911647350     0.070685782115     1.226637534972    12.000000000000
           H          0.942614352650    -0.613386217885     0.009295534972     1.007825032070
           C          0.346942352650    -0.347058217885     2.410590534972    12.000000000000
           H         -0.923068647350     1.060375782115     1.409143534972     1.007825032070
           H         -1.370440647350    -0.605904217885     1.137525534972     1.007825032070
           H          1.175294352650     0.340687782115     2.537882534972     1.007825032070
           H         -0.235481647350    -0.362733217885     3.326496534972     1.007825032070
           H          0.756695352650    -1.343164217885     2.263869534972     1.007825032070

  Running in c1 symmetry.

  Rotational constants: A =      0.58500  B =      0.07087  C =      0.06684 [cm^-1]
  Rotational constants: A =  17537.88560  B =   2124.63989  C =   2003.95211 [MHz]
  Nuclear repulsion =  189.366769360927861

  Charge       = 0
  Multiplicity = 1
  Electrons    = 42
  Nalpha       = 21
  Nbeta        = 21

  ==> Algorithm <==

  SCF Algorithm Type is DF.
  DIIS enabled.
  MOM disabled.
  Fractional occupation disabled.
  Guess Type is CORE.
  Energy threshold   = 1.00e-06
  Density threshold  = 1.00e-06
  Integral threshold = 0.00e+00

  ==> Primary Basis <==

  Basis Set: 6-31G*
    Number of shells: 52
    Number of basis function: 97
    Number of Cartesian functions: 97
    Spherical Harmonics?: false
    Max angular momentum: 2

  ==> Pre-Iterations <==

   -------------------------------------------------------
    Irrep   Nso     Nmo     Nalpha   Nbeta   Ndocc  Nsocc
   -------------------------------------------------------
     A         97      97       0       0       0       0
   -------------------------------------------------------
    Total      97      97      21      21      21       0
   -------------------------------------------------------

 OEINTS: Overlap, kinetic, potential, dipole, and quadrupole integrals
         stored in file 35.

  ==> Integral Setup <==

  ==> DFJK: Density-Fitted J/K Matrices <==

    J tasked:                  Yes
    K tasked:                  Yes
    wK tasked:                  No
    OpenMP threads:              1
    Integrals threads:           1
    Memory (MB):              1430
    Algorithm:                Core
    Integral Cache:           NONE
    Schwarz Cutoff:          1E-12
    Fitting Condition:       1E-12

   => Auxiliary Basis Set <=

  Basis Set: 
    Number of shells: 219
    Number of basis function: 680
    Number of Cartesian functions: 680
    Spherical Harmonics?: false
    Max angular momentum: 3

  Minimum eigenvalue in the overlap matrix is 4.2620900172E-03.
  Using Symmetric Orthogonalization.
  SCF Guess: Core (One-Electron) Hamiltonian.

  ==> Iterations <==

                           Total Energy        Delta E     RMS |[F,P]|

   @DF-RHF iter   1:  -148.36771534255067   -1.48368e+02   8.43056e-02 
   @DF-RHF iter   2:  -155.76114661766158   -7.39343e+00   5.69870e-02 DIIS
   @DF-RHF iter   3:  -178.37767546947455   -2.26165e+01   5.88113e-02 DIIS
   @DF-RHF iter   4:  -211.65069496091652   -3.32730e+01   1.05600e-02 DIIS
   @DF-RHF iter   5:  -212.26379062358811   -6.13096e-01   2.86507e-03 DIIS
   @DF-RHF iter   6:  -212.30809751485398   -4.43069e-02   9.03447e-04 DIIS
   @DF-RHF iter   7:  -212.31235604544784   -4.25853e-03   2.08975e-04 DIIS
   @DF-RHF iter   8:  -212.31257879411257   -2.22749e-04   4.64789e-05 DIIS
   @DF-RHF iter   9:  -212.31259629339732   -1.74993e-05   1.58469e-05 DIIS
   @DF-RHF iter  10:  -212.31259813813537   -1.84474e-06   6.45947e-06 DIIS
   @DF-RHF iter  11:  -212.31259838152707   -2.43392e-07   1.98603e-06 DIIS
   @DF-RHF iter  12:  -212.31259840542785   -2.39008e-08   2.98455e-07 DIIS

  ==> Post-Iterations <==

    Orbital Energies (a.u.)
    -----------------------

    Doubly Occupied:                                                      

       1A    -15.533398     2A    -11.240360     3A    -11.240065  
       4A    -11.211570     5A    -11.207962     6A     -1.205486  
       7A     -1.028932     8A     -0.962942     9A     -0.833094  
      10A     -0.822595    11A     -0.656782    12A     -0.628891  
      13A     -0.604581    14A     -0.589322    15A     -0.552872  
      16A     -0.521066    17A     -0.508999    18A     -0.490256  
      19A     -0.484744    20A     -0.471163    21A     -0.359309  

    Virtual:                                                              

      22A      0.232498    23A      0.255392    24A      0.271448  
      25A      0.293007    26A      0.314455    27A      0.317684  
      28A      0.322734    29A      0.329236    30A      0.349334  
      31A      0.350820    32A      0.358711    33A      0.399688  
      34A      0.432152    35A      0.453610    36A      0.459843  
      37A      0.699722    38A      0.738990    39A      0.740624  
      40A      0.753068    41A      0.772807    42A      0.797551  
      43A      0.879390    44A      0.896788    45A      0.920022  
      46A      0.957149    47A      0.972267    48A      1.052952  
      49A      1.075150    50A      1.119230    51A      1.162376  
      52A      1.163784    53A      1.169857    54A      1.174912  
      55A      1.199954    56A      1.203750    57A      1.222847  
      58A      1.237561    59A      1.246106    60A      1.254572  
      61A      1.278716    62A      1.282600    63A      1.335553  
      64A      1.538205    65A      1.611985    66A      1.690100  
      67A      1.727208    68A      1.760721    69A      1.908294  
      70A      1.941729    71A      2.028367    72A      2.114320  
      73A      2.220176    74A      2.257073    75A      2.268892  
      76A      2.324645    77A      2.339473    78A      2.388193  
      79A      2.401903    80A      2.462270    81A      2.585993  
      82A      2.593832    83A      2.625520    84A      2.659602  
      85A      2.679124    86A      2.777991    87A      2.804111  
      88A      2.818441    89A      2.938587    90A      3.000389  
      91A      3.172207    92A      3.233603    93A      4.359055  
      94A      4.624795    95A      4.628510    96A      4.822862  
      97A      4.898087  

    Final Occupation by Irrep:
              A 
    DOCC [    21 ]

  Energy converged.

  @DF-RHF Final Energy:  -212.31259840542785

   => Energetics <=

    Nuclear Repulsion Energy =            189.3667693609278615
    One-Electron Energy =                -661.0499544348309655
    Two-Electron Energy =                 259.3705866684756529
    DFT Exchange-Correlation Energy =       0.0000000000000000
    Empirical Dispersion Energy =           0.0000000000000000
    PCM Polarization Energy =               0.0000000000000000
    EFP Energy =                            0.0000000000000000
    Total Energy =                       -212.3125984054274795

    Alert: EFP and PCM quantities not currently incorporated into SCF psivars.

Properties will be evaluated at   0.000000,   0.000000,   0.000000 Bohr
  ==> Properties <==


Properties computed using the SCF density matrix

  Nuclear Dipole Moment: (a.u.)
     X:    -0.1517      Y:    -0.9192      Z:    -0.0259

  Electronic Dipole Moment: (a.u.)
     X:    -0.0043      Y:     0.5400      Z:     0.0498

  Dipole Moment: (a.u.)
     X:    -0.1560      Y:    -0.3792      Z:     0.0239     Total:     0.4107

  Dipole Moment: (Debye)
     X:    -0.3964      Y:    -0.9637      Z:     0.0607     Total:     1.0438


  Saving occupied orbitals to File 180.

*** tstop() called on cx1-3-1-3.cx1.hpc.ic.ac.uk at Tue Jul  5 16:22:22 2016
Module time:
	user time   =       4.97 seconds =       0.08 minutes
	system time =       0.03 seconds =       0.00 minutes
	total time  =          5 seconds =       0.08 minutes
Total time:
	user time   =       4.97 seconds =       0.08 minutes
	system time =       0.03 seconds =       0.00 minutes
	total time  =          5 seconds =       0.08 minutes


Properties will be evaluated at   0.000000,   0.000000,   0.000000 Bohr

Properties computed using the  density matrix

  Nuclear Dipole Moment: (a.u.)
     X:    -0.1517      Y:    -0.9192      Z:    -0.0259

  Electronic Dipole Moment: (a.u.)
     X:    -0.0043      Y:     0.5400      Z:     0.0498

  Dipole Moment: (a.u.)
     X:    -0.1560      Y:    -0.3792      Z:     0.0239     Total:     0.4107

  Dipole Moment: (Debye)
     X:    -0.3964      Y:    -0.9637      Z:     0.0607     Total:     1.0438

  Quadrupole Moment: (Debye Ang)
    XX:   -34.2897     YY:   -34.3503     ZZ:   -33.2013
    XY:    -1.5534     XZ:     0.0199     YZ:    -0.0008

  Traceless Quadrupole Moment: (Debye Ang)
    XX:    -0.3426     YY:    -0.4032     ZZ:     0.7458
    XY:    -1.5534     XZ:     0.0199     YZ:    -0.0008

  Mulliken Charges: (a.u.)
   Center  Symbol    Alpha    Beta     Spin     Total
       1     H     0.42030  0.42030  0.00000  0.15940
       2     C     3.24216  3.24216  0.00000 -0.48433
       3     C     3.05396  3.05396  0.00000 -0.10791
       4     H     0.41192  0.41192  0.00000  0.17615
       5     H     0.42494  0.42494  0.00000  0.15012
       6     N     3.85054  3.85054  0.00000 -0.70109
       7     H     0.42041  0.42041  0.00000  0.15917
       8     H     0.43479  0.43479  0.00000  0.13042
       9     C     3.04727  3.04727  0.00000 -0.09454
      10     H     0.33527  0.33527  0.00000  0.32946
      11     C     3.24992  3.24992  0.00000 -0.49984
      12     H     0.41992  0.41992  0.00000  0.16015
      13     H     0.43466  0.43466  0.00000  0.13068
      14     H     0.41204  0.41204  0.00000  0.17592
      15     H     0.41760  0.41760  0.00000  0.16480
      16     H     0.42428  0.42428  0.00000  0.15143

   Total alpha = 21.00000, Total beta = 21.00000, Total charge = -0.00000


*** PSI4 exiting successfully. Buy a developer a beer!
