    -----------------------------------------------------------------------
          Psi4: An Open-Source Ab Initio Electronic Structure Package
                              Psi4 (no tag) Driver

                          Git: Rev {detached?}  

    J. M. Turney, A. C. Simmonett, R. M. Parrish, E. G. Hohenstein,
    F. A. Evangelista, J. T. Fermann, B. J. Mintz, L. A. Burns, J. J. Wilke,
    M. L. Abrams, N. J. Russ, M. L. Leininger, C. L. Janssen, E. T. Seidl,
    W. D. Allen, H. F. Schaefer, R. A. King, E. F. Valeev, C. D. Sherrill,
    and T. D. Crawford, WIREs Comput. Mol. Sci. 2, 556-565 (2012)
    (doi: 10.1002/wcms.93)

                         Additional Contributions by
    A. E. DePrince, M. Saitow, U. Bozkaya, A. Yu. Sokolov
    -----------------------------------------------------------------------


    Psi4 started on: Tue Jul  5 16:20:19 2016

    Process ID:  18751
    PSI4DATADIR: /export131/home/mjharvey/miniconda3/share
    Memory level set to 256.000 MB

  ==> Input File <==

--------------------------------------------------------------------------
set {
	reference rhf
	basis 6-31G*
}


set_num_threads( 1 )
memory 2 gb

molecule MOL {
0 1

H	 -1.020265	 -0.811255	 -0.596246
N	 -0.712432	 0.000013	 -0.096310
C	 0.734192	 -0.000004	 0.040609
H	 -1.152692	 -0.028251	 0.802706
H	 1.139899	 -0.873598	 -0.456463
H	 1.139939	 0.873831	 -0.456100
H	 1.096456	 -0.000300	 1.069655

	symmetry c1
}
ee = energy('scf')
oeprop('DIPOLE', 'QUADRUPOLE', 'MULLIKEN_CHARGES')
f=open( 'psi4out.xyz', 'w' )
f.write( "7  " )
f.write( str(ee) + "\n" )
f.write( MOL.save_string_xyz() )
f.close()
--------------------------------------------------------------------------

  Memory set to   2.000 GiB by Python script.

*** tstart() called on cx1-3-15-2.cx1.hpc.ic.ac.uk
*** at Tue Jul  5 16:20:20 2016


         ---------------------------------------------------------
                                   SCF
            by Justin Turney, Rob Parrish, and Andy Simmonett
                              RHF Reference
                        1 Threads,   2000 MiB Core
         ---------------------------------------------------------

  ==> Geometry <==

    Molecular point group: c1
    Full point group: C1

    Geometry (in Angstrom), charge = 0, multiplicity = 1:

       Center              X                  Y                   Z               Mass       
    ------------   -----------------  -----------------  -----------------  -----------------
           H         -1.021773241442    -0.784001497721    -0.580302179502     1.007825032070
           N         -0.713940241442     0.027266502279    -0.080366179502    14.003074004780
           C          0.732683758558     0.027249502279     0.056552820498    12.000000000000
           H         -1.154200241442    -0.000997497721     0.818649820498     1.007825032070
           H          1.138390758558    -0.846344497721    -0.440519179502     1.007825032070
           H          1.138430758558     0.901084502279    -0.440156179502     1.007825032070
           H          1.094947758558     0.026953502279     1.085598820498     1.007825032070

  Running in c1 symmetry.

  Rotational constants: A =      3.52542  B =      0.77197  C =      0.74020 [cm^-1]
  Rotational constants: A = 105689.51453  B =  23143.03879  C =  22190.60016 [MHz]
  Nuclear repulsion =   42.342454915566130

  Charge       = 0
  Multiplicity = 1
  Electrons    = 18
  Nalpha       = 9
  Nbeta        = 9

  ==> Algorithm <==

  SCF Algorithm Type is DF.
  DIIS enabled.
  MOM disabled.
  Fractional occupation disabled.
  Guess Type is CORE.
  Energy threshold   = 1.00e-06
  Density threshold  = 1.00e-06
  Integral threshold = 0.00e+00

  ==> Primary Basis <==

  Basis Set: 6-31G*
    Number of shells: 22
    Number of basis function: 40
    Number of Cartesian functions: 40
    Spherical Harmonics?: false
    Max angular momentum: 2

  ==> Pre-Iterations <==

   -------------------------------------------------------
    Irrep   Nso     Nmo     Nalpha   Nbeta   Ndocc  Nsocc
   -------------------------------------------------------
     A         40      40       0       0       0       0
   -------------------------------------------------------
    Total      40      40       9       9       9       0
   -------------------------------------------------------

 OEINTS: Overlap, kinetic, potential, dipole, and quadrupole integrals
         stored in file 35.

  ==> Integral Setup <==

  ==> DFJK: Density-Fitted J/K Matrices <==

    J tasked:                  Yes
    K tasked:                  Yes
    wK tasked:                  No
    OpenMP threads:              1
    Integrals threads:           1
    Memory (MB):              1430
    Algorithm:                Core
    Integral Cache:           NONE
    Schwarz Cutoff:          1E-12
    Fitting Condition:       1E-12

   => Auxiliary Basis Set <=

  Basis Set: 
    Number of shells: 93
    Number of basis function: 287
    Number of Cartesian functions: 287
    Spherical Harmonics?: false
    Max angular momentum: 3

  Minimum eigenvalue in the overlap matrix is 8.7732965985E-03.
  Using Symmetric Orthogonalization.
  SCF Guess: Core (One-Electron) Hamiltonian.

  ==> Iterations <==

                           Total Energy        Delta E     RMS |[F,P]|

   @DF-RHF iter   1:   -79.81237615326847   -7.98124e+01   1.10376e-01 
   @DF-RHF iter   2:   -82.92337191039633   -3.11100e+00   7.42562e-02 DIIS
   @DF-RHF iter   3:   -93.91356599264162   -1.09902e+01   4.17228e-02 DIIS
   @DF-RHF iter   4:   -95.00358119529398   -1.09002e+00   1.51986e-02 DIIS
   @DF-RHF iter   5:   -95.17631912240142   -1.72738e-01   5.88990e-03 DIIS
   @DF-RHF iter   6:   -95.20447305987906   -2.81539e-02   6.42584e-04 DIIS
   @DF-RHF iter   7:   -95.20511274586079   -6.39686e-04   2.59969e-04 DIIS
   @DF-RHF iter   8:   -95.20519480181153   -8.20560e-05   3.54909e-05 DIIS
   @DF-RHF iter   9:   -95.20519675509340   -1.95328e-06   7.43558e-06 DIIS
   @DF-RHF iter  10:   -95.20519684253054   -8.74371e-08   1.69294e-06 DIIS
   @DF-RHF iter  11:   -95.20519684729902   -4.76848e-09   3.47038e-07 DIIS

  ==> Post-Iterations <==

    Orbital Energies (a.u.)
    -----------------------

    Doubly Occupied:                                                      

       1A    -15.532529     2A    -11.236685     3A     -1.170060  
       4A     -0.895802     5A     -0.664734     6A     -0.601615  
       7A     -0.557572     8A     -0.517327     9A     -0.380455  

    Virtual:                                                              

      10A      0.226561    11A      0.277512    12A      0.288181  
      13A      0.335873    14A      0.383031    15A      0.426470  
      16A      0.761330    17A      0.777807    18A      0.780925  
      19A      0.996107    20A      1.037551    21A      1.072455  
      22A      1.145413    23A      1.170031    24A      1.219781  
      25A      1.243674    26A      1.250974    27A      1.277644  
      28A      1.641489    29A      1.760211    30A      1.768723  
      31A      2.302327    32A      2.391761    33A      2.421892  
      34A      2.486697    35A      2.559352    36A      2.729950  
      37A      2.912127    38A      3.019185    39A      4.200335  
      40A      4.682171  

    Final Occupation by Irrep:
              A 
    DOCC [     9 ]

  Energy converged.

  @DF-RHF Final Energy:   -95.20519684729902

   => Energetics <=

    Nuclear Repulsion Energy =             42.3424549155661296
    One-Electron Energy =                -211.9817109820586438
    Two-Electron Energy =                  74.4340592191935997
    DFT Exchange-Correlation Energy =       0.0000000000000000
    Empirical Dispersion Energy =           0.0000000000000000
    PCM Polarization Energy =               0.0000000000000000
    EFP Energy =                            0.0000000000000000
    Total Energy =                        -95.2051968472989216

    Alert: EFP and PCM quantities not currently incorporated into SCF psivars.

Properties will be evaluated at   0.000000,   0.000000,   0.000000 Bohr
  ==> Properties <==


Properties computed using the SCF density matrix

  Nuclear Dipole Moment: (a.u.)
     X:     1.1231      Y:    -0.6594      Z:     0.4158

  Electronic Dipole Moment: (a.u.)
     X:    -0.9888      Y:     0.1053      Z:    -0.0951

  Dipole Moment: (a.u.)
     X:     0.1343      Y:    -0.5541      Z:     0.3207     Total:     0.6541

  Dipole Moment: (Debye)
     X:     0.3413      Y:    -1.4083      Z:     0.8151     Total:     1.6626


  Saving occupied orbitals to File 180.

*** tstop() called on cx1-3-15-2.cx1.hpc.ic.ac.uk at Tue Jul  5 16:20:22 2016
Module time:
	user time   =       1.51 seconds =       0.03 minutes
	system time =       0.01 seconds =       0.00 minutes
	total time  =          2 seconds =       0.03 minutes
Total time:
	user time   =       1.51 seconds =       0.03 minutes
	system time =       0.01 seconds =       0.00 minutes
	total time  =          2 seconds =       0.03 minutes


Properties will be evaluated at   0.000000,   0.000000,   0.000000 Bohr

Properties computed using the  density matrix

  Nuclear Dipole Moment: (a.u.)
     X:     1.1231      Y:    -0.6594      Z:     0.4158

  Electronic Dipole Moment: (a.u.)
     X:    -0.9888      Y:     0.1053      Z:    -0.0951

  Dipole Moment: (a.u.)
     X:     0.1343      Y:    -0.5541      Z:     0.3207     Total:     0.6541

  Dipole Moment: (Debye)
     X:     0.3413      Y:    -1.4083      Z:     0.8151     Total:     1.6626

  Quadrupole Moment: (Debye Ang)
    XX:   -13.9299     YY:   -14.2100     ZZ:   -13.2114
    XY:     1.7277     XZ:    -1.0061     YZ:     1.0920

  Traceless Quadrupole Moment: (Debye Ang)
    XX:    -0.1461     YY:    -0.4263     ZZ:     0.5724
    XY:     1.7277     XZ:    -1.0061     YZ:     1.0920

  Mulliken Charges: (a.u.)
   Center  Symbol    Alpha    Beta     Spin     Total
       1     H     0.33146  0.33146  0.00000  0.33708
       2     N     3.92216  3.92216  0.00000 -0.84431
       3     C     3.14725  3.14725  0.00000 -0.29450
       4     H     0.33221  0.33221  0.00000  0.33558
       5     H     0.42624  0.42624  0.00000  0.14751
       6     H     0.41616  0.41616  0.00000  0.16768
       7     H     0.42452  0.42452  0.00000  0.15096

   Total alpha =  9.00000, Total beta =  9.00000, Total charge = -0.00000


*** PSI4 exiting successfully. Buy a developer a beer!
