    -----------------------------------------------------------------------
          Psi4: An Open-Source Ab Initio Electronic Structure Package
                              Psi4 (no tag) Driver

                          Git: Rev {detached?}  

    J. M. Turney, A. C. Simmonett, R. M. Parrish, E. G. Hohenstein,
    F. A. Evangelista, J. T. Fermann, B. J. Mintz, L. A. Burns, J. J. Wilke,
    M. L. Abrams, N. J. Russ, M. L. Leininger, C. L. Janssen, E. T. Seidl,
    W. D. Allen, H. F. Schaefer, R. A. King, E. F. Valeev, C. D. Sherrill,
    and T. D. Crawford, WIREs Comput. Mol. Sci. 2, 556-565 (2012)
    (doi: 10.1002/wcms.93)

                         Additional Contributions by
    A. E. DePrince, M. Saitow, U. Bozkaya, A. Yu. Sokolov
    -----------------------------------------------------------------------


    Psi4 started on: Tue Jul  5 16:33:39 2016

    Process ID:  24989
    PSI4DATADIR: /export131/home/mjharvey/miniconda3/share
    Memory level set to 256.000 MB

  ==> Input File <==

--------------------------------------------------------------------------
set {
	reference rhf
	basis 6-31G*
}


set_num_threads( 1 )
memory 2 gb

molecule MOL {
0 1

H	 -2.798360	 -0.862255	 -0.071053
N	 -1.863561	 -0.715187	 0.256814
C	 -1.344686	 0.554728	 -0.219830
H	 -1.300452	 -1.461917	 -0.101532
C	 -0.178931	 0.992991	 0.641609
H	 -1.014525	 0.531663	 -1.259283
H	 -2.129844	 1.300759	 -0.144015
O	 -0.657110	 1.243472	 1.932225
H	 0.582720	 0.214040	 0.669212
H	 0.267028	 1.892629	 0.223271
C	 0.299990	 1.738993	 2.813127
H	 -0.181766	 1.891012	 3.769422
H	 1.123074	 1.038325	 2.941884
H	 0.705280	 2.687672	 2.467354

	symmetry c1
}
set optking {
	frozen_dihedral = ("
		8 5 3 6,
		5 8 11 13,
		11 8 5 3
	")
}

ee = energy('scf')
oeprop('DIPOLE', 'QUADRUPOLE', 'MULLIKEN_CHARGES')
f=open( 'psi4out.xyz', 'w' )
f.write( "14  " )
f.write( str(ee) + "\n" )
f.write( MOL.save_string_xyz() )
f.close()
--------------------------------------------------------------------------

  Memory set to   2.000 GiB by Python script.

*** tstart() called on cx1-3-6-4.cx1.hpc.ic.ac.uk
*** at Tue Jul  5 16:33:40 2016


         ---------------------------------------------------------
                                   SCF
            by Justin Turney, Rob Parrish, and Andy Simmonett
                              RHF Reference
                        1 Threads,   2000 MiB Core
         ---------------------------------------------------------

  ==> Geometry <==

    Molecular point group: c1
    Full point group: C1

    Geometry (in Angstrom), charge = 0, multiplicity = 1:

       Center              X                  Y                   Z               Mass       
    ------------   -----------------  -----------------  -----------------  -----------------
           H         -2.051394515683    -1.616280176524    -1.161825573470     1.007825032070
           N         -1.116595515683    -1.469212176524    -0.833958573470    14.003074004780
           C         -0.597720515683    -0.199297176524    -1.310602573470    12.000000000000
           H         -0.553486515683    -2.215942176524    -1.192304573470     1.007825032070
           C          0.568034484317     0.238965823476    -0.449163573470    12.000000000000
           H         -0.267559515683    -0.222362176524    -2.350055573470     1.007825032070
           H         -1.382878515683     0.546733823476    -1.234787573470     1.007825032070
           O          0.089855484317     0.489446823476     0.841452426530    15.994914619560
           H          1.329685484317    -0.539985176524    -0.421560573470     1.007825032070
           H          1.013993484317     1.138603823476    -0.867501573470     1.007825032070
           C          1.046955484317     0.984967823476     1.722354426530    12.000000000000
           H          0.565199484317     1.136986823476     2.678649426530     1.007825032070
           H          1.870039484317     0.284299823476     1.851111426530     1.007825032070
           H          1.452245484317     1.933646823476     1.376581426530     1.007825032070

  Running in c1 symmetry.

  Rotational constants: A =      0.45019  B =      0.08792  C =      0.08080 [cm^-1]
  Rotational constants: A =  13496.27465  B =   2635.73769  C =   2422.30929 [MHz]
  Nuclear repulsion =  193.920424807256410

  Charge       = 0
  Multiplicity = 1
  Electrons    = 42
  Nalpha       = 21
  Nbeta        = 21

  ==> Algorithm <==

  SCF Algorithm Type is DF.
  DIIS enabled.
  MOM disabled.
  Fractional occupation disabled.
  Guess Type is CORE.
  Energy threshold   = 1.00e-06
  Density threshold  = 1.00e-06
  Integral threshold = 0.00e+00

  ==> Primary Basis <==

  Basis Set: 6-31G*
    Number of shells: 48
    Number of basis function: 93
    Number of Cartesian functions: 93
    Spherical Harmonics?: false
    Max angular momentum: 2

  ==> Pre-Iterations <==

   -------------------------------------------------------
    Irrep   Nso     Nmo     Nalpha   Nbeta   Ndocc  Nsocc
   -------------------------------------------------------
     A         93      93       0       0       0       0
   -------------------------------------------------------
    Total      93      93      21      21      21       0
   -------------------------------------------------------

 OEINTS: Overlap, kinetic, potential, dipole, and quadrupole integrals
         stored in file 35.

  ==> Integral Setup <==

  ==> DFJK: Density-Fitted J/K Matrices <==

    J tasked:                  Yes
    K tasked:                  Yes
    wK tasked:                  No
    OpenMP threads:              1
    Integrals threads:           1
    Memory (MB):              1430
    Algorithm:                Core
    Integral Cache:           NONE
    Schwarz Cutoff:          1E-12
    Fitting Condition:       1E-12

   => Auxiliary Basis Set <=

  Basis Set: 
    Number of shells: 201
    Number of basis function: 630
    Number of Cartesian functions: 630
    Spherical Harmonics?: false
    Max angular momentum: 3

  Minimum eigenvalue in the overlap matrix is 4.4971112608E-03.
  Using Symmetric Orthogonalization.
  SCF Guess: Core (One-Electron) Hamiltonian.

  ==> Iterations <==

                           Total Energy        Delta E     RMS |[F,P]|

   @DF-RHF iter   1:  -201.79665007590521   -2.01797e+02   7.97567e-02 
   @DF-RHF iter   2:  -154.56921691261587    4.72274e+01   6.64470e-02 DIIS
   @DF-RHF iter   3:  -210.14703964404114   -5.55778e+01   6.08601e-02 DIIS
   @DF-RHF iter   4:  -238.66897627939247   -2.85219e+01   4.22077e-02 DIIS
   @DF-RHF iter   5:  -247.75728780989922   -9.08831e+00   9.01297e-03 DIIS
   @DF-RHF iter   6:  -248.06416850774482   -3.06881e-01   3.51652e-03 DIIS
   @DF-RHF iter   7:  -248.11451425877405   -5.03458e-02   9.17679e-04 DIIS
   @DF-RHF iter   8:  -248.11815171562526   -3.63746e-03   2.86394e-04 DIIS
   @DF-RHF iter   9:  -248.11859369487982   -4.41979e-04   9.67082e-05 DIIS
   @DF-RHF iter  10:  -248.11865378113632   -6.00863e-05   3.18248e-05 DIIS
   @DF-RHF iter  11:  -248.11866143554019   -7.65440e-06   8.11627e-06 DIIS
   @DF-RHF iter  12:  -248.11866189685114   -4.61311e-07   3.05141e-06 DIIS
   @DF-RHF iter  13:  -248.11866196271475   -6.58636e-08   6.54297e-07 DIIS

  ==> Post-Iterations <==

    Orbital Energies (a.u.)
    -----------------------

    Doubly Occupied:                                                      

       1A    -20.545753     2A    -15.531288     3A    -11.263266  
       4A    -11.258676     5A    -11.242291     6A     -1.370311  
       7A     -1.176440     8A     -0.996639     9A     -0.900611  
      10A     -0.815538    11A     -0.681693    12A     -0.664408  
      13A     -0.643063    14A     -0.618805    15A     -0.590873  
      16A     -0.549266    17A     -0.513228    18A     -0.502941  
      19A     -0.461586    20A     -0.411155    21A     -0.379809  

    Virtual:                                                              

      22A      0.227419    23A      0.252359    24A      0.286234  
      25A      0.292263    26A      0.319776    27A      0.325075  
      28A      0.331857    29A      0.338824    30A      0.354444  
      31A      0.367915    32A      0.432459    33A      0.444048  
      34A      0.457049    35A      0.727698    36A      0.766683  
      37A      0.779345    38A      0.798132    39A      0.815023  
      40A      0.837510    41A      0.885828    42A      0.934241  
      43A      1.000967    44A      1.013337    45A      1.063703  
      46A      1.098966    47A      1.117305    48A      1.157316  
      49A      1.158043    50A      1.168198    51A      1.201124  
      52A      1.210751    53A      1.224636    54A      1.243238  
      55A      1.253484    56A      1.273505    57A      1.315869  
      58A      1.381217    59A      1.444790    60A      1.579398  
      61A      1.665514    62A      1.700932    63A      1.755532  
      64A      1.775045    65A      1.793593    66A      1.947040  
      67A      2.013971    68A      2.081439    69A      2.210342  
      70A      2.245284    71A      2.281008    72A      2.381348  
      73A      2.411590    74A      2.445800    75A      2.483459  
      76A      2.499992    77A      2.525797    78A      2.583511  
      79A      2.646073    80A      2.688596    81A      2.728448  
      82A      2.850125    83A      2.888534    84A      2.907017  
      85A      3.023331    86A      3.090321    87A      3.200520  
      88A      3.347969    89A      4.219199    90A      4.375176  
      91A      4.661585    92A      4.699388    93A      4.893988  

    Final Occupation by Irrep:
              A 
    DOCC [    21 ]

  Energy converged.

  @DF-RHF Final Energy:  -248.11866196271475

   => Energetics <=

    Nuclear Repulsion Energy =            193.9204248072564098
    One-Electron Energy =                -721.8427720845630802
    Two-Electron Energy =                 279.8036853145920304
    DFT Exchange-Correlation Energy =       0.0000000000000000
    Empirical Dispersion Energy =           0.0000000000000000
    PCM Polarization Energy =               0.0000000000000000
    EFP Energy =                            0.0000000000000000
    Total Energy =                       -248.1186619627146683

    Alert: EFP and PCM quantities not currently incorporated into SCF psivars.

Properties will be evaluated at   0.000000,   0.000000,   0.000000 Bohr
  ==> Properties <==


Properties computed using the SCF density matrix

  Nuclear Dipole Moment: (a.u.)
     X:     1.8560      Y:     0.4245      Z:    -1.2326

  Electronic Dipole Moment: (a.u.)
     X:    -1.4274      Y:    -0.3852      Z:     0.5082

  Dipole Moment: (a.u.)
     X:     0.4286      Y:     0.0392      Z:    -0.7244     Total:     0.8426

  Dipole Moment: (Debye)
     X:     1.0894      Y:     0.0997      Z:    -1.8412     Total:     2.1416


  Saving occupied orbitals to File 180.

*** tstop() called on cx1-3-6-4.cx1.hpc.ic.ac.uk at Tue Jul  5 16:33:45 2016
Module time:
	user time   =       4.68 seconds =       0.08 minutes
	system time =       0.05 seconds =       0.00 minutes
	total time  =          5 seconds =       0.08 minutes
Total time:
	user time   =       4.68 seconds =       0.08 minutes
	system time =       0.05 seconds =       0.00 minutes
	total time  =          5 seconds =       0.08 minutes


Properties will be evaluated at   0.000000,   0.000000,   0.000000 Bohr

Properties computed using the  density matrix

  Nuclear Dipole Moment: (a.u.)
     X:     1.8560      Y:     0.4245      Z:    -1.2326

  Electronic Dipole Moment: (a.u.)
     X:    -1.4274      Y:    -0.3852      Z:     0.5082

  Dipole Moment: (a.u.)
     X:     0.4286      Y:     0.0392      Z:    -0.7244     Total:     0.8426

  Dipole Moment: (Debye)
     X:     1.0894      Y:     0.0997      Z:    -1.8412     Total:     2.1416

  Quadrupole Moment: (Debye Ang)
    XX:   -29.8946     YY:   -30.5461     ZZ:   -29.0885
    XY:     0.8791     XZ:     3.4383     YZ:     3.5267

  Traceless Quadrupole Moment: (Debye Ang)
    XX:    -0.0516     YY:    -0.7031     ZZ:     0.7546
    XY:     0.8791     XZ:     3.4383     YZ:     3.5267

  Mulliken Charges: (a.u.)
   Center  Symbol    Alpha    Beta     Spin     Total
       1     H     0.33090  0.33090  0.00000  0.33821
       2     N     3.91189  3.91189  0.00000 -0.82377
       3     C     3.07728  3.07728  0.00000 -0.15455
       4     H     0.33613  0.33613  0.00000  0.32774
       5     C     2.98053  2.98053  0.00000  0.03894
       6     H     0.43251  0.43251  0.00000  0.13498
       7     H     0.41205  0.41205  0.00000  0.17590
       8     O     4.29751  4.29751  0.00000 -0.59501
       9     H     0.43393  0.43393  0.00000  0.13213
      10     H     0.43306  0.43306  0.00000  0.13389
      11     C     3.07753  3.07753  0.00000 -0.15506
      12     H     0.41223  0.41223  0.00000  0.17554
      13     H     0.43137  0.43137  0.00000  0.13727
      14     H     0.43310  0.43310  0.00000  0.13381

   Total alpha = 21.00000, Total beta = 21.00000, Total charge = -0.00000


*** PSI4 exiting successfully. Buy a developer a beer!
