    -----------------------------------------------------------------------
          Psi4: An Open-Source Ab Initio Electronic Structure Package
                              Psi4 (no tag) Driver

                          Git: Rev {detached?}  

    J. M. Turney, A. C. Simmonett, R. M. Parrish, E. G. Hohenstein,
    F. A. Evangelista, J. T. Fermann, B. J. Mintz, L. A. Burns, J. J. Wilke,
    M. L. Abrams, N. J. Russ, M. L. Leininger, C. L. Janssen, E. T. Seidl,
    W. D. Allen, H. F. Schaefer, R. A. King, E. F. Valeev, C. D. Sherrill,
    and T. D. Crawford, WIREs Comput. Mol. Sci. 2, 556-565 (2012)
    (doi: 10.1002/wcms.93)

                         Additional Contributions by
    A. E. DePrince, M. Saitow, U. Bozkaya, A. Yu. Sokolov
    -----------------------------------------------------------------------


    Psi4 started on: Tue Jul  5 16:41:47 2016

    Process ID:  24036
    PSI4DATADIR: /export131/home/mjharvey/miniconda3/share
    Memory level set to 256.000 MB

  ==> Input File <==

--------------------------------------------------------------------------
set {
	reference rhf
	basis 6-31G*
}


set_num_threads( 1 )
memory 2 gb

molecule MOL {
0 1

H	 1.872595	 1.736261	 -1.802393
C	 1.146824	 1.538349	 -1.021999
C	 1.322923	 0.120767	 -0.479465
H	 1.287195	 2.280963	 -0.242772
H	 0.157494	 1.678877	 -1.446347
C	 0.306652	 -0.176050	 0.621399
H	 2.322829	 -0.002868	 -0.076562
H	 1.199093	 -0.604762	 -1.274785
N	 -1.068537	 -0.011044	 0.085269
H	 0.372515	 -1.192590	 0.973735
H	 0.391664	 0.520566	 1.441230
O	 -1.656956	 -0.997225	 -0.235017
O	 -1.478635	 1.104830	 -0.018026

	symmetry c1
}
set optking {
	frozen_dihedral = ("
		12 9 6 3
	")
}

ee = energy('scf')
oeprop('DIPOLE', 'QUADRUPOLE', 'MULLIKEN_CHARGES')
f=open( 'psi4out.xyz', 'w' )
f.write( "13  " )
f.write( str(ee) + "\n" )
f.write( MOL.save_string_xyz() )
f.close()
--------------------------------------------------------------------------

  Memory set to   2.000 GiB by Python script.

*** tstart() called on cx1-3-15-4.cx1.hpc.ic.ac.uk
*** at Tue Jul  5 16:41:48 2016


         ---------------------------------------------------------
                                   SCF
            by Justin Turney, Rob Parrish, and Andy Simmonett
                              RHF Reference
                        1 Threads,   2000 MiB Core
         ---------------------------------------------------------

  ==> Geometry <==

    Molecular point group: c1
    Full point group: C1

    Geometry (in Angstrom), charge = 0, multiplicity = 1:

       Center              X                  Y                   Z               Mass       
    ------------   -----------------  -----------------  -----------------  -----------------
           H          2.143648032470     1.468828079936    -1.624274427074     1.007825032070
           C          1.417877032470     1.270916079936    -0.843880427074    12.000000000000
           C          1.593976032470    -0.146665920064    -0.301346427074    12.000000000000
           H          1.558248032470     2.013530079936    -0.064653427074     1.007825032070
           H          0.428547032470     1.411444079936    -1.268228427074     1.007825032070
           C          0.577705032470    -0.443482920064     0.799517572926    12.000000000000
           H          2.593882032470    -0.270300920064     0.101556572926     1.007825032070
           H          1.470146032470    -0.872194920064    -1.096666427074     1.007825032070
           N         -0.797483967530    -0.278476920064     0.263387572926    14.003074004780
           H          0.643568032470    -1.460022920064     1.151853572926     1.007825032070
           H          0.662717032470     0.253133079936     1.619348572926     1.007825032070
           O         -1.385902967530    -1.264657920064    -0.056898427074    15.994914619560
           O         -1.207581967530     0.837397079936     0.160092572926    15.994914619560

  Running in c1 symmetry.

  Rotational constants: A =      0.21511  B =      0.09376  C =      0.07733 [cm^-1]
  Rotational constants: A =   6448.81704  B =   2810.73437  C =   2318.25809 [MHz]
  Nuclear repulsion =  255.291733180399859

  Charge       = 0
  Multiplicity = 1
  Electrons    = 48
  Nalpha       = 24
  Nbeta        = 24

  ==> Algorithm <==

  SCF Algorithm Type is DF.
  DIIS enabled.
  MOM disabled.
  Fractional occupation disabled.
  Guess Type is CORE.
  Energy threshold   = 1.00e-06
  Density threshold  = 1.00e-06
  Integral threshold = 0.00e+00

  ==> Primary Basis <==

  Basis Set: 6-31G*
    Number of shells: 50
    Number of basis function: 104
    Number of Cartesian functions: 104
    Spherical Harmonics?: false
    Max angular momentum: 2

  ==> Pre-Iterations <==

   -------------------------------------------------------
    Irrep   Nso     Nmo     Nalpha   Nbeta   Ndocc  Nsocc
   -------------------------------------------------------
     A        104     104       0       0       0       0
   -------------------------------------------------------
    Total     104     104      24      24      24       0
   -------------------------------------------------------

 OEINTS: Overlap, kinetic, potential, dipole, and quadrupole integrals
         stored in file 35.

  ==> Integral Setup <==

  ==> DFJK: Density-Fitted J/K Matrices <==

    J tasked:                  Yes
    K tasked:                  Yes
    wK tasked:                  No
    OpenMP threads:              1
    Integrals threads:           1
    Memory (MB):              1430
    Algorithm:                Core
    Integral Cache:           NONE
    Schwarz Cutoff:          1E-12
    Fitting Condition:       1E-12

   => Auxiliary Basis Set <=

  Basis Set: 
    Number of shells: 207
    Number of basis function: 661
    Number of Cartesian functions: 661
    Spherical Harmonics?: false
    Max angular momentum: 3

  Minimum eigenvalue in the overlap matrix is 3.1051949433E-03.
  Using Symmetric Orthogonalization.
  SCF Guess: Core (One-Electron) Hamiltonian.

  ==> Iterations <==

                           Total Energy        Delta E     RMS |[F,P]|

   @DF-RHF iter   1:  -245.83155959281439   -2.45832e+02   8.51475e-02 
   @DF-RHF iter   2:  -172.95997185905262    7.28716e+01   9.14704e-02 DIIS
   @DF-RHF iter   3:  -294.63930283106947   -1.21679e+02   3.98932e-02 DIIS
   @DF-RHF iter   4:  -257.66019727871935    3.69791e+01   8.14822e-02 DIIS
   @DF-RHF iter   5:  -282.04802202497262   -2.43878e+01   6.54817e-02 DIIS
   @DF-RHF iter   6:  -297.73028985483654   -1.56823e+01   5.00230e-02 DIIS
   @DF-RHF iter   7:  -303.59091589938794   -5.86063e+00   4.34193e-02 DIIS
   @DF-RHF iter   8:  -316.02063085292593   -1.24297e+01   2.74497e-02 DIIS
   @DF-RHF iter   9:  -321.25840304151257   -5.23777e+00   8.83916e-03 DIIS
   @DF-RHF iter  10:  -321.48505214876946   -2.26649e-01   7.12641e-03 DIIS
   @DF-RHF iter  11:  -321.69262411191153   -2.07572e-01   2.21587e-03 DIIS
   @DF-RHF iter  12:  -321.72694217574258   -3.43181e-02   6.87368e-04 DIIS
   @DF-RHF iter  13:  -321.73006148941340   -3.11931e-03   3.38030e-04 DIIS
   @DF-RHF iter  14:  -321.73087423015943   -8.12741e-04   7.87112e-05 DIIS
   @DF-RHF iter  15:  -321.73095279574306   -7.85656e-05   3.16176e-05 DIIS
   @DF-RHF iter  16:  -321.73097009292565   -1.72972e-05   1.51209e-05 DIIS
   @DF-RHF iter  17:  -321.73097340742765   -3.31450e-06   6.29529e-06 DIIS
   @DF-RHF iter  18:  -321.73097399239805   -5.84970e-07   2.11941e-06 DIIS
   @DF-RHF iter  19:  -321.73097406024124   -6.78432e-08   5.05321e-07 DIIS

  ==> Post-Iterations <==

    Orbital Energies (a.u.)
    -----------------------

    Doubly Occupied:                                                      

       1A    -20.603497     2A    -20.600844     3A    -15.848292  
       4A    -11.299341     5A    -11.256789     6A    -11.223045  
       7A     -1.632734     8A     -1.418457     9A     -1.135924  
      10A     -1.019585    11A     -0.888298    12A     -0.827622  
      13A     -0.760059    14A     -0.734970    15A     -0.726073  
      16A     -0.654264    17A     -0.619299    18A     -0.586453  
      19A     -0.534832    20A     -0.518592    21A     -0.510738  
      22A     -0.482899    23A     -0.473514    24A     -0.445748  

    Virtual:                                                              

      25A      0.116385    26A      0.227133    27A      0.265705  
      28A      0.276750    29A      0.288977    30A      0.297636  
      31A      0.316492    32A      0.331426    33A      0.345560  
      34A      0.369731    35A      0.414590    36A      0.538965  
      37A      0.611904    38A      0.685222    39A      0.703192  
      40A      0.723680    41A      0.746227    42A      0.772093  
      43A      0.852692    44A      0.876235    45A      0.912090  
      46A      0.938318    47A      0.966035    48A      1.043896  
      49A      1.063318    50A      1.075600    51A      1.104188  
      52A      1.115236    53A      1.133180    54A      1.169348  
      55A      1.182843    56A      1.192738    57A      1.202911  
      58A      1.237674    59A      1.253562    60A      1.270186  
      61A      1.298658    62A      1.346769    63A      1.381914  
      64A      1.434711    65A      1.487645    66A      1.621630  
      67A      1.685827    68A      1.744212    69A      1.781638  
      70A      1.830268    71A      1.851351    72A      1.986635  
      73A      2.066606    74A      2.100250    75A      2.118963  
      76A      2.137371    77A      2.165687    78A      2.235744  
      79A      2.272496    80A      2.277771    81A      2.295642  
      82A      2.382611    83A      2.409443    84A      2.456399  
      85A      2.517109    86A      2.606139    87A      2.651168  
      88A      2.677505    89A      2.721060    90A      2.786266  
      91A      2.845151    92A      2.953718    93A      3.012145  
      94A      3.085420    95A      3.238654    96A      3.253614  
      97A      3.277120    98A      3.487705    99A      4.087255  
     100A      4.269165   101A      4.299879   102A      4.600811  
     103A      4.745831   104A      4.932430  

    Final Occupation by Irrep:
              A 
    DOCC [    24 ]

  Energy converged.

  @DF-RHF Final Energy:  -321.73097406024124

   => Energetics <=

    Nuclear Repulsion Energy =            255.2917331803998593
    One-Electron Energy =                -944.4416586516640564
    Two-Electron Energy =                 367.4189514110229311
    DFT Exchange-Correlation Energy =       0.0000000000000000
    Empirical Dispersion Energy =           0.0000000000000000
    PCM Polarization Energy =               0.0000000000000000
    EFP Energy =                            0.0000000000000000
    Total Energy =                       -321.7309740602412376

    Alert: EFP and PCM quantities not currently incorporated into SCF psivars.

Properties will be evaluated at   0.000000,   0.000000,   0.000000 Bohr
  ==> Properties <==


Properties computed using the SCF density matrix

  Nuclear Dipole Moment: (a.u.)
     X:     8.8965      Y:     2.3841      Z:    -1.1075

  Electronic Dipole Moment: (a.u.)
     X:    -7.3738      Y:    -2.4915      Z:     1.5591

  Dipole Moment: (a.u.)
     X:     1.5227      Y:    -0.1074      Z:     0.4517     Total:     1.5919

  Dipole Moment: (Debye)
     X:     3.8704      Y:    -0.2730      Z:     1.1480     Total:     4.0463


  Saving occupied orbitals to File 180.

*** tstop() called on cx1-3-15-4.cx1.hpc.ic.ac.uk at Tue Jul  5 16:41:54 2016
Module time:
	user time   =       5.86 seconds =       0.10 minutes
	system time =       0.04 seconds =       0.00 minutes
	total time  =          6 seconds =       0.10 minutes
Total time:
	user time   =       5.86 seconds =       0.10 minutes
	system time =       0.04 seconds =       0.00 minutes
	total time  =          6 seconds =       0.10 minutes


Properties will be evaluated at   0.000000,   0.000000,   0.000000 Bohr

Properties computed using the  density matrix

  Nuclear Dipole Moment: (a.u.)
     X:     8.8965      Y:     2.3841      Z:    -1.1075

  Electronic Dipole Moment: (a.u.)
     X:    -7.3738      Y:    -2.4915      Z:     1.5591

  Dipole Moment: (a.u.)
     X:     1.5227      Y:    -0.1074      Z:     0.4517     Total:     1.5919

  Dipole Moment: (Debye)
     X:     3.8704      Y:    -0.2730      Z:     1.1480     Total:     4.0463

  Quadrupole Moment: (Debye Ang)
    XX:   -39.2105     YY:   -39.5049     ZZ:   -33.7642
    XY:    -1.1507     XZ:    -0.0406     YZ:    -0.9719

  Traceless Quadrupole Moment: (Debye Ang)
    XX:    -1.7173     YY:    -2.0117     ZZ:     3.7290
    XY:    -1.1507     XZ:    -0.0406     YZ:    -0.9719

  Mulliken Charges: (a.u.)
   Center  Symbol    Alpha    Beta     Spin     Total
       1     H     0.41537  0.41537  0.00000  0.16927
       2     C     3.24779  3.24779  0.00000 -0.49558
       3     C     3.17508  3.17508  0.00000 -0.35015
       4     H     0.41614  0.41614  0.00000  0.16773
       5     H     0.39628  0.39628  0.00000  0.20743
       6     C     3.09074  3.09074  0.00000 -0.18148
       7     H     0.40437  0.40437  0.00000  0.19125
       8     H     0.40145  0.40145  0.00000  0.19709
       9     N     3.22306  3.22306  0.00000  0.55387
      10     H     0.38545  0.38545  0.00000  0.22910
      11     H     0.38854  0.38854  0.00000  0.22292
      12     O     4.22798  4.22798  0.00000 -0.45596
      13     O     4.22775  4.22775  0.00000 -0.45549

   Total alpha = 24.00000, Total beta = 24.00000, Total charge =  0.00000


*** PSI4 exiting successfully. Buy a developer a beer!
