    -----------------------------------------------------------------------
          Psi4: An Open-Source Ab Initio Electronic Structure Package
                              Psi4 (no tag) Driver

                          Git: Rev {detached?}  

    J. M. Turney, A. C. Simmonett, R. M. Parrish, E. G. Hohenstein,
    F. A. Evangelista, J. T. Fermann, B. J. Mintz, L. A. Burns, J. J. Wilke,
    M. L. Abrams, N. J. Russ, M. L. Leininger, C. L. Janssen, E. T. Seidl,
    W. D. Allen, H. F. Schaefer, R. A. King, E. F. Valeev, C. D. Sherrill,
    and T. D. Crawford, WIREs Comput. Mol. Sci. 2, 556-565 (2012)
    (doi: 10.1002/wcms.93)

                         Additional Contributions by
    A. E. DePrince, M. Saitow, U. Bozkaya, A. Yu. Sokolov
    -----------------------------------------------------------------------


    Psi4 started on: Tue Jul  5 17:10:30 2016

    Process ID:   6639
    PSI4DATADIR: /export131/home/mjharvey/miniconda3/share
    Memory level set to 256.000 MB

  ==> Input File <==

--------------------------------------------------------------------------
set {
	reference rhf
	basis 6-31G*
}


set_num_threads( 1 )
memory 2 gb

molecule MOL {
0 1

H	 2.451652	 -2.178703	 0.543297
O	 2.773837	 -1.297590	 0.410870
C	 1.759943	 -0.431505	 0.213148
C	 1.862124	 0.819302	 0.813966
C	 0.651926	 -0.744916	 -0.549876
H	 2.733179	 1.038798	 1.402136
C	 0.856814	 1.749449	 0.648912
H	 0.547115	 -1.700752	 -1.024130
C	 -0.338916	 0.212707	 -0.694816
H	 0.943868	 2.712675	 1.116326
C	 -0.266768	 1.458510	 -0.113164
N	 -1.508931	 -0.123973	 -1.503022
H	 -1.054778	 2.169580	 -0.250365
O	 -1.468934	 -1.131207	 -2.143267
O	 -2.435452	 0.626433	 -1.476288

	symmetry c1
}
set optking {
	frozen_dihedral = ("
		11 9 12 14
	")
}

ee = energy('scf')
oeprop('DIPOLE', 'QUADRUPOLE', 'MULLIKEN_CHARGES')
f=open( 'psi4out.xyz', 'w' )
f.write( "15  " )
f.write( str(ee) + "\n" )
f.write( MOL.save_string_xyz() )
f.close()
--------------------------------------------------------------------------

  Memory set to   2.000 GiB by Python script.

*** tstart() called on cx1-1-4-3.cx1.hpc.ic.ac.uk
*** at Tue Jul  5 17:10:31 2016


         ---------------------------------------------------------
                                   SCF
            by Justin Turney, Rob Parrish, and Andy Simmonett
                              RHF Reference
                        1 Threads,   2000 MiB Core
         ---------------------------------------------------------

  ==> Geometry <==

    Molecular point group: c1
    Full point group: C1

    Geometry (in Angstrom), charge = 0, multiplicity = 1:

       Center              X                  Y                   Z               Mass       
    ------------   -----------------  -----------------  -----------------  -----------------
           H          2.302373096600    -2.238083405001     1.023421787778     1.007825032070
           O          2.624558096600    -1.356970405001     0.890994787778    15.994914619560
           C          1.610664096600    -0.490885405001     0.693272787778    12.000000000000
           C          1.712845096600     0.759921594999     1.294090787778    12.000000000000
           C          0.502647096600    -0.804296405001    -0.069751212222    12.000000000000
           H          2.583900096600     0.979417594999     1.882260787778     1.007825032070
           C          0.707535096600     1.690068594999     1.129036787778    12.000000000000
           H          0.397836096600    -1.760132405001    -0.544005212222     1.007825032070
           C         -0.488194903400     0.153326594999    -0.214691212222    12.000000000000
           H          0.794589096600     2.653294594999     1.596450787778     1.007825032070
           C         -0.416046903400     1.399129594999     0.366960787778    12.000000000000
           N         -1.658209903400    -0.183353405001    -1.022897212222    14.003074004780
           H         -1.204056903400     2.110199594999     0.229759787778     1.007825032070
           O         -1.618212903400    -1.190587405001    -1.663142212222    15.994914619560
           O         -2.584730903400     0.567052594999    -0.996163212222    15.994914619560

  Running in c1 symmetry.

  Rotational constants: A =      0.09350  B =      0.03335  C =      0.02467 [cm^-1]
  Rotational constants: A =   2803.07133  B =    999.68184  C =    739.63616 [MHz]
  Nuclear repulsion =  503.342351851157105

  Charge       = 0
  Multiplicity = 1
  Electrons    = 72
  Nalpha       = 36
  Nbeta        = 36

  ==> Algorithm <==

  SCF Algorithm Type is DF.
  DIIS enabled.
  MOM disabled.
  Fractional occupation disabled.
  Guess Type is CORE.
  Energy threshold   = 1.00e-06
  Density threshold  = 1.00e-06
  Integral threshold = 0.00e+00

  ==> Primary Basis <==

  Basis Set: 6-31G*
    Number of shells: 70
    Number of basis function: 160
    Number of Cartesian functions: 160
    Spherical Harmonics?: false
    Max angular momentum: 2

  ==> Pre-Iterations <==

   -------------------------------------------------------
    Irrep   Nso     Nmo     Nalpha   Nbeta   Ndocc  Nsocc
   -------------------------------------------------------
     A        160     160       0       0       0       0
   -------------------------------------------------------
    Total     160     160      36      36      36       0
   -------------------------------------------------------

 OEINTS: Overlap, kinetic, potential, dipole, and quadrupole integrals
         stored in file 35.

  ==> Integral Setup <==

  ==> DFJK: Density-Fitted J/K Matrices <==

    J tasked:                  Yes
    K tasked:                  Yes
    wK tasked:                  No
    OpenMP threads:              1
    Integrals threads:           1
    Memory (MB):              1430
    Algorithm:                Core
    Integral Cache:           NONE
    Schwarz Cutoff:          1E-12
    Fitting Condition:       1E-12

   => Auxiliary Basis Set <=

  Basis Set: 
    Number of shells: 285
    Number of basis function: 935
    Number of Cartesian functions: 935
    Spherical Harmonics?: false
    Max angular momentum: 3

  Minimum eigenvalue in the overlap matrix is 4.1676439034E-04.
  Using Symmetric Orthogonalization.
  SCF Guess: Core (One-Electron) Hamiltonian.

  ==> Iterations <==

                           Total Energy        Delta E     RMS |[F,P]|

   @DF-RHF iter   1:  -421.61530029762264   -4.21615e+02   6.02633e-02 
   @DF-RHF iter   2:  -311.00720995552103    1.10608e+02   5.73868e-02 DIIS
   @DF-RHF iter   3:  -328.89755450167968   -1.78903e+01   7.12279e-02 DIIS
   @DF-RHF iter   4:  -496.10408272453867   -1.67207e+02   2.32115e-02 DIIS
   @DF-RHF iter   5:  -498.08834491879895   -1.98426e+00   2.44187e-02 DIIS
   @DF-RHF iter   6:  -508.32119870282952   -1.02329e+01   7.24897e-03 DIIS
   @DF-RHF iter   7:  -508.87919465325922   -5.57996e-01   3.05005e-03 DIIS
   @DF-RHF iter   8:  -508.98521997711748   -1.06025e-01   1.43118e-03 DIIS
   @DF-RHF iter   9:  -509.02116741695215   -3.59474e-02   5.63587e-04 DIIS
   @DF-RHF iter  10:  -509.02483209209765   -3.66468e-03   1.41644e-04 DIIS
   @DF-RHF iter  11:  -509.02527654637095   -4.44454e-04   6.79829e-05 DIIS
   @DF-RHF iter  12:  -509.02538743572120   -1.10889e-04   3.57367e-05 DIIS
   @DF-RHF iter  13:  -509.02542061988834   -3.31842e-05   1.40545e-05 DIIS
   @DF-RHF iter  14:  -509.02542970196771   -9.08208e-06   5.08353e-06 DIIS
   @DF-RHF iter  15:  -509.02543127403010   -1.57206e-06   2.42757e-06 DIIS
   @DF-RHF iter  16:  -509.02543165621580   -3.82186e-07   9.68790e-07 DIIS

  ==> Post-Iterations <==

    Orbital Energies (a.u.)
    -----------------------

    Doubly Occupied:                                                      

       1A    -20.610026     2A    -20.604839     3A    -20.604208  
       4A    -15.859012     5A    -11.326681     6A    -11.310501  
       7A    -11.267516     8A    -11.266545     9A    -11.265344  
      10A    -11.261206    11A     -1.637919    12A     -1.432466  
      13A     -1.421117    14A     -1.200408    15A     -1.094493  
      16A     -1.046145    17A     -0.965085    18A     -0.875999  
      19A     -0.829049    20A     -0.791373    21A     -0.748472  
      22A     -0.736546    23A     -0.723524    24A     -0.708301  
      25A     -0.674645    26A     -0.637891    27A     -0.626549  
      28A     -0.576303    29A     -0.557444    30A     -0.540244  
      31A     -0.513753    32A     -0.490771    33A     -0.489568  
      34A     -0.454364    35A     -0.376719    36A     -0.348107  

    Virtual:                                                              

      37A      0.058464    38A      0.122816    39A      0.179552  
      40A      0.210610    41A      0.227530    42A      0.290218  
      43A      0.296679    44A      0.323645    45A      0.357742  
      46A      0.383628    47A      0.427801    48A      0.437655  
      49A      0.451603    50A      0.519866    51A      0.535567  
      52A      0.550581    53A      0.609726    54A      0.678931  
      55A      0.694250    56A      0.709001    57A      0.715519  
      58A      0.752568    59A      0.785928    60A      0.797854  
      61A      0.801498    62A      0.813689    63A      0.831325  
      64A      0.871037    65A      0.877184    66A      0.884086  
      67A      0.893324    68A      0.946663    69A      0.978333  
      70A      0.991390    71A      1.007790    72A      1.035759  
      73A      1.044212    74A      1.072708    75A      1.080881  
      76A      1.091356    77A      1.133412    78A      1.138189  
      79A      1.164581    80A      1.170461    81A      1.201995  
      82A      1.221520    83A      1.243565    84A      1.264872  
      85A      1.269584    86A      1.286552    87A      1.300063  
      88A      1.335652    89A      1.391057    90A      1.401734  
      91A      1.427657    92A      1.452111    93A      1.470159  
      94A      1.514832    95A      1.547832    96A      1.589978  
      97A      1.627027    98A      1.652600    99A      1.660830  
     100A      1.699208   101A      1.715766   102A      1.732817  
     103A      1.738635   104A      1.744943   105A      1.908718  
     106A      1.969876   107A      2.010696   108A      2.018150  
     109A      2.055019   110A      2.076501   111A      2.102889  
     112A      2.108247   113A      2.118524   114A      2.173382  
     115A      2.217710   116A      2.229940   117A      2.233092  
     118A      2.259309   119A      2.270812   120A      2.291247  
     121A      2.369857   122A      2.393482   123A      2.433344  
     124A      2.457355   125A      2.472299   126A      2.484058  
     127A      2.531844   128A      2.557876   129A      2.605107  
     130A      2.617036   131A      2.726795   132A      2.753327  
     133A      2.831841   134A      2.837055   135A      2.900178  
     136A      2.923467   137A      2.965893   138A      2.982411  
     139A      3.009116   140A      3.091312   141A      3.101289  
     142A      3.112266   143A      3.162445   144A      3.253151  
     145A      3.287487   146A      3.299913   147A      3.410827  
     148A      3.498202   149A      3.605729   150A      3.834621  
     151A      4.163233   152A      4.274964   153A      4.357951  
     154A      4.434693   155A      4.503456   156A      4.534169  
     157A      4.609413   158A      4.757847   159A      4.870301  
     160A      5.159191  

    Final Occupation by Irrep:
              A 
    DOCC [    36 ]

  Energy converged.

  @DF-RHF Final Energy:  -509.02543165621580

   => Energetics <=

    Nuclear Repulsion Energy =            503.3423518511571046
    One-Electron Energy =               -1692.9897842849577501
    Two-Electron Energy =                 680.6220007775846170
    DFT Exchange-Correlation Energy =       0.0000000000000000
    Empirical Dispersion Energy =           0.0000000000000000
    PCM Polarization Energy =               0.0000000000000000
    EFP Energy =                            0.0000000000000000
    Total Energy =                       -509.0254316562159147

    Alert: EFP and PCM quantities not currently incorporated into SCF psivars.

Properties will be evaluated at   0.000000,   0.000000,   0.000000 Bohr
  ==> Properties <==


Properties computed using the SCF density matrix

  Nuclear Dipole Moment: (a.u.)
     X:     4.5671      Y:     1.6266      Z:     3.9205

  Electronic Dipole Moment: (a.u.)
     X:    -3.4760      Y:    -1.5313      Z:    -2.7519

  Dipole Moment: (a.u.)
     X:     1.0911      Y:     0.0954      Z:     1.1686     Total:     1.6016

  Dipole Moment: (Debye)
     X:     2.7732      Y:     0.2424      Z:     2.9704     Total:     4.0710


  Saving occupied orbitals to File 180.

*** tstop() called on cx1-1-4-3.cx1.hpc.ic.ac.uk at Tue Jul  5 17:10:51 2016
Module time:
	user time   =      19.91 seconds =       0.33 minutes
	system time =       0.25 seconds =       0.00 minutes
	total time  =         20 seconds =       0.33 minutes
Total time:
	user time   =      19.91 seconds =       0.33 minutes
	system time =       0.25 seconds =       0.00 minutes
	total time  =         20 seconds =       0.33 minutes


Properties will be evaluated at   0.000000,   0.000000,   0.000000 Bohr

Properties computed using the  density matrix

  Nuclear Dipole Moment: (a.u.)
     X:     4.5671      Y:     1.6266      Z:     3.9205

  Electronic Dipole Moment: (a.u.)
     X:    -3.4760      Y:    -1.5313      Z:    -2.7519

  Dipole Moment: (a.u.)
     X:     1.0911      Y:     0.0954      Z:     1.1686     Total:     1.6016

  Dipole Moment: (Debye)
     X:     2.7732      Y:     0.2424      Z:     2.9704     Total:     4.0710

  Quadrupole Moment: (Debye Ang)
    XX:   -67.9534     YY:   -47.5015     ZZ:   -58.9419
    XY:    -1.8580     XZ:    -2.9563     YZ:    -0.9295

  Traceless Quadrupole Moment: (Debye Ang)
    XX:    -9.8211     YY:    10.6307     ZZ:    -0.8096
    XY:    -1.8580     XZ:    -2.9563     YZ:    -0.9295

  Mulliken Charges: (a.u.)
   Center  Symbol    Alpha    Beta     Spin     Total
       1     H     0.26771  0.26771  0.00000  0.46458
       2     O     4.37845  4.37845  0.00000 -0.75691
       3     C     2.80237  2.80237  0.00000  0.39525
       4     C     3.10573  3.10573  0.00000 -0.21147
       5     C     3.12755  3.12755  0.00000 -0.25509
       6     H     0.38124  0.38124  0.00000  0.23752
       7     C     3.10283  3.10283  0.00000 -0.20565
       8     H     0.36552  0.36552  0.00000  0.26895
       9     C     2.91375  2.91375  0.00000  0.17250
      10     H     0.38692  0.38692  0.00000  0.22615
      11     C     3.09494  3.09494  0.00000 -0.18987
      12     N     3.24234  3.24234  0.00000  0.51532
      13     H     0.36528  0.36528  0.00000  0.26944
      14     O     4.23390  4.23390  0.00000 -0.46781
      15     O     4.23146  4.23146  0.00000 -0.46293

   Total alpha = 36.00000, Total beta = 36.00000, Total charge =  0.00000


*** PSI4 exiting successfully. Buy a developer a beer!
