    -----------------------------------------------------------------------
          Psi4: An Open-Source Ab Initio Electronic Structure Package
                              Psi4 (no tag) Driver

                          Git: Rev {detached?}  

    J. M. Turney, A. C. Simmonett, R. M. Parrish, E. G. Hohenstein,
    F. A. Evangelista, J. T. Fermann, B. J. Mintz, L. A. Burns, J. J. Wilke,
    M. L. Abrams, N. J. Russ, M. L. Leininger, C. L. Janssen, E. T. Seidl,
    W. D. Allen, H. F. Schaefer, R. A. King, E. F. Valeev, C. D. Sherrill,
    and T. D. Crawford, WIREs Comput. Mol. Sci. 2, 556-565 (2012)
    (doi: 10.1002/wcms.93)

                         Additional Contributions by
    A. E. DePrince, M. Saitow, U. Bozkaya, A. Yu. Sokolov
    -----------------------------------------------------------------------


    Psi4 started on: Tue Jul  5 16:29:52 2016

    Process ID:  11667
    PSI4DATADIR: /export131/home/mjharvey/miniconda3/share
    Memory level set to 256.000 MB

  ==> Input File <==

--------------------------------------------------------------------------
set {
	reference rhf
	basis 6-31G*
}


set_num_threads( 1 )
memory 2 gb

molecule MOL {
0 1

O	 0.247891	 -0.006476	 2.073878
C	 -0.161389	 -0.564418	 1.108184
C	 -1.531182	 -1.170946	 0.972691
O	 0.550821	 -0.724572	 0.000672
H	 -2.054312	 -0.711715	 0.141952
H	 -2.085170	 -1.021691	 1.887410
H	 -1.442857	 -2.229999	 0.760122
C	 1.863949	 -0.193559	 -0.000319
H	 2.028859	 0.409284	 -0.881648
H	 2.526261	 -1.045082	 -0.000003
H	 2.029520	 0.410555	 0.880008

	symmetry c1
}
set optking {
	frozen_dihedral = ("
		8 4 2 1
	")
}

ee = energy('scf')
oeprop('DIPOLE', 'QUADRUPOLE', 'MULLIKEN_CHARGES')
f=open( 'psi4out.xyz', 'w' )
f.write( "11  " )
f.write( str(ee) + "\n" )
f.write( MOL.save_string_xyz() )
f.close()
--------------------------------------------------------------------------

  Memory set to   2.000 GiB by Python script.

*** tstart() called on cx1-1-4-3.cx1.hpc.ic.ac.uk
*** at Tue Jul  5 16:29:52 2016


         ---------------------------------------------------------
                                   SCF
            by Justin Turney, Rob Parrish, and Andy Simmonett
                              RHF Reference
                        1 Threads,   2000 MiB Core
         ---------------------------------------------------------

  ==> Geometry <==

    Molecular point group: c1
    Full point group: C1

    Geometry (in Angstrom), charge = 0, multiplicity = 1:

       Center              X                  Y                   Z               Mass       
    ------------   -----------------  -----------------  -----------------  -----------------
           O          0.033916129608     0.521120566837     1.250522655031    15.994914619560
           C         -0.375363870392    -0.036821433163     0.284828655031    12.000000000000
           C         -1.745156870392    -0.643349433163     0.149335655031    12.000000000000
           O          0.336846129608    -0.196975433163    -0.822683344969    15.994914619560
           H         -2.268286870392    -0.184118433163    -0.681403344969     1.007825032070
           H         -2.299144870392    -0.494094433163     1.064054655031     1.007825032070
           H         -1.656831870392    -1.702402433163    -0.063233344969     1.007825032070
           C          1.649974129608     0.334037566837    -0.823674344969    12.000000000000
           H          1.814884129608     0.936880566837    -1.705003344969     1.007825032070
           H          2.312286129608    -0.517485433163    -0.823358344969     1.007825032070
           H          1.815545129608     0.938151566837     0.056652655031     1.007825032070

  Running in c1 symmetry.

  Rotational constants: A =      0.35118  B =      0.14031  C =      0.10412 [cm^-1]
  Rotational constants: A =  10527.98606  B =   4206.26098  C =   3121.47052 [MHz]
  Nuclear repulsion =  183.469693198793323

  Charge       = 0
  Multiplicity = 1
  Electrons    = 40
  Nalpha       = 20
  Nbeta        = 20

  ==> Algorithm <==

  SCF Algorithm Type is DF.
  DIIS enabled.
  MOM disabled.
  Fractional occupation disabled.
  Guess Type is CORE.
  Energy threshold   = 1.00e-06
  Density threshold  = 1.00e-06
  Integral threshold = 0.00e+00

  ==> Primary Basis <==

  Basis Set: 6-31G*
    Number of shells: 42
    Number of basis function: 87
    Number of Cartesian functions: 87
    Spherical Harmonics?: false
    Max angular momentum: 2

  ==> Pre-Iterations <==

   -------------------------------------------------------
    Irrep   Nso     Nmo     Nalpha   Nbeta   Ndocc  Nsocc
   -------------------------------------------------------
     A         87      87       0       0       0       0
   -------------------------------------------------------
    Total      87      87      20      20      20       0
   -------------------------------------------------------

 OEINTS: Overlap, kinetic, potential, dipole, and quadrupole integrals
         stored in file 35.

  ==> Integral Setup <==

  ==> DFJK: Density-Fitted J/K Matrices <==

    J tasked:                  Yes
    K tasked:                  Yes
    wK tasked:                  No
    OpenMP threads:              1
    Integrals threads:           1
    Memory (MB):              1430
    Algorithm:                Core
    Integral Cache:           NONE
    Schwarz Cutoff:          1E-12
    Fitting Condition:       1E-12

   => Auxiliary Basis Set <=

  Basis Set: 
    Number of shells: 174
    Number of basis function: 555
    Number of Cartesian functions: 555
    Spherical Harmonics?: false
    Max angular momentum: 3

  Minimum eigenvalue in the overlap matrix is 3.9648185730E-03.
  Using Symmetric Orthogonalization.
  SCF Guess: Core (One-Electron) Hamiltonian.

  ==> Iterations <==

                           Total Energy        Delta E     RMS |[F,P]|

   @DF-RHF iter   1:  -212.83557101274801   -2.12836e+02   8.82803e-02 
   @DF-RHF iter   2:  -209.07997294025529    3.75560e+00   6.30687e-02 DIIS
   @DF-RHF iter   3:  -241.55009771389564   -3.24701e+01   6.66808e-02 DIIS
   @DF-RHF iter   4:  -259.77357430275288   -1.82235e+01   3.91703e-02 DIIS
   @DF-RHF iter   5:  -264.51115039668315   -4.73758e+00   2.13462e-02 DIIS
   @DF-RHF iter   6:  -266.55192290803745   -2.04077e+00   7.74359e-03 DIIS
   @DF-RHF iter   7:  -266.79827518113132   -2.46352e-01   2.55205e-03 DIIS
   @DF-RHF iter   8:  -266.82964927940355   -3.13741e-02   8.26389e-04 DIIS
   @DF-RHF iter   9:  -266.83247274628883   -2.82347e-03   3.71026e-04 DIIS
   @DF-RHF iter  10:  -266.83313259830601   -6.59852e-04   1.16479e-04 DIIS
   @DF-RHF iter  11:  -266.83321536751902   -8.27692e-05   3.58027e-05 DIIS
   @DF-RHF iter  12:  -266.83322706092122   -1.16934e-05   1.88103e-05 DIIS
   @DF-RHF iter  13:  -266.83322963752886   -2.57661e-06   4.40437e-06 DIIS
   @DF-RHF iter  14:  -266.83322985749180   -2.19963e-07   1.24638e-06 DIIS
   @DF-RHF iter  15:  -266.83322987307332   -1.55815e-08   3.40039e-07 DIIS

  ==> Post-Iterations <==

    Orbital Energies (a.u.)
    -----------------------

    Doubly Occupied:                                                      

       1A    -20.605519     2A    -20.545661     3A    -11.377846  
       4A    -11.277469     5A    -11.235275     6A     -1.471596  
       7A     -1.364708     8A     -1.036216     9A     -0.951722  
      10A     -0.777218    11A     -0.699018    12A     -0.680766  
      13A     -0.677350    14A     -0.597847    15A     -0.589022  
      16A     -0.559981    17A     -0.528898    18A     -0.518391  
      19A     -0.454375    20A     -0.443453  

    Virtual:                                                              

      21A      0.197825    22A      0.250775    23A      0.268364  
      24A      0.298499    25A      0.316375    26A      0.328467  
      27A      0.335140    28A      0.341780    29A      0.414426  
      30A      0.499079    31A      0.543564    32A      0.696468  
      33A      0.737676    34A      0.753116    35A      0.766005  
      36A      0.800844    37A      0.827266    38A      0.896131  
      39A      0.917532    40A      0.977157    41A      1.032096  
      42A      1.087225    43A      1.114602    44A      1.138887  
      45A      1.149458    46A      1.163879    47A      1.204348  
      48A      1.217730    49A      1.243205    50A      1.267587  
      51A      1.361005    52A      1.372073    53A      1.399266  
      54A      1.455668    55A      1.632179    56A      1.658075  
      57A      1.774912    58A      1.810842    59A      1.846402  
      60A      1.876704    61A      1.997859    62A      2.058647  
      63A      2.097459    64A      2.132581    65A      2.199864  
      66A      2.270315    67A      2.378764    68A      2.399483  
      69A      2.444799    70A      2.492821    71A      2.561119  
      72A      2.569119    73A      2.635553    74A      2.663575  
      75A      2.727067    76A      2.822574    77A      2.947046  
      78A      3.051762    79A      3.141017    80A      3.342715  
      81A      3.401233    82A      3.544592    83A      4.386733  
      84A      4.521383    85A      4.583749    86A      4.694236  
      87A      4.887560  

    Final Occupation by Irrep:
              A 
    DOCC [    20 ]

  Energy converged.

  @DF-RHF Final Energy:  -266.83322987307332

   => Energetics <=

    Nuclear Repulsion Energy =            183.4696931987933226
    One-Electron Energy =                -727.8211404105998099
    Two-Electron Energy =                 277.5182173387328248
    DFT Exchange-Correlation Energy =       0.0000000000000000
    Empirical Dispersion Energy =           0.0000000000000000
    PCM Polarization Energy =               0.0000000000000000
    EFP Energy =                            0.0000000000000000
    Total Energy =                       -266.8332298730737193

    Alert: EFP and PCM quantities not currently incorporated into SCF psivars.

Properties will be evaluated at   0.000000,   0.000000,   0.000000 Bohr
  ==> Properties <==


Properties computed using the SCF density matrix

  Nuclear Dipole Moment: (a.u.)
     X:    -0.2622      Y:    -0.9575      Z:    -2.0157

  Electronic Dipole Moment: (a.u.)
     X:     0.2165      Y:     0.6760      Z:     1.3343

  Dipole Moment: (a.u.)
     X:    -0.0457      Y:    -0.2815      Z:    -0.6814     Total:     0.7387

  Dipole Moment: (Debye)
     X:    -0.1162      Y:    -0.7156      Z:    -1.7319     Total:     1.8775


  Saving occupied orbitals to File 180.

*** tstop() called on cx1-1-4-3.cx1.hpc.ic.ac.uk at Tue Jul  5 16:29:57 2016
Module time:
	user time   =       4.54 seconds =       0.08 minutes
	system time =       0.06 seconds =       0.00 minutes
	total time  =          5 seconds =       0.08 minutes
Total time:
	user time   =       4.54 seconds =       0.08 minutes
	system time =       0.06 seconds =       0.00 minutes
	total time  =          5 seconds =       0.08 minutes


Properties will be evaluated at   0.000000,   0.000000,   0.000000 Bohr

Properties computed using the  density matrix

  Nuclear Dipole Moment: (a.u.)
     X:    -0.2622      Y:    -0.9575      Z:    -2.0157

  Electronic Dipole Moment: (a.u.)
     X:     0.2165      Y:     0.6760      Z:     1.3343

  Dipole Moment: (a.u.)
     X:    -0.0457      Y:    -0.2815      Z:    -0.6814     Total:     0.7387

  Dipole Moment: (Debye)
     X:    -0.1162      Y:    -0.7156      Z:    -1.7319     Total:     1.8775

  Quadrupole Moment: (Debye Ang)
    XX:   -24.4680     YY:   -29.4953     ZZ:   -34.2128
    XY:     1.3170     XZ:    -1.5873     YZ:    -2.7860

  Traceless Quadrupole Moment: (Debye Ang)
    XX:     4.9240     YY:    -0.1032     ZZ:    -4.8208
    XY:     1.3170     XZ:    -1.5873     YZ:    -2.7860

  Mulliken Charges: (a.u.)
   Center  Symbol    Alpha    Beta     Spin     Total
       1     O     4.28297  4.28297  0.00000 -0.56593
       2     C     2.62197  2.62197  0.00000  0.75605
       3     C     3.28257  3.28257  0.00000 -0.56514
       4     O     4.29934  4.29934  0.00000 -0.59867
       5     H     0.39958  0.39958  0.00000  0.20084
       6     H     0.39641  0.39641  0.00000  0.20718
       7     H     0.39968  0.39968  0.00000  0.20063
       8     C     3.10267  3.10267  0.00000 -0.20533
       9     H     0.41159  0.41159  0.00000  0.17682
      10     H     0.41277  0.41277  0.00000  0.17446
      11     H     0.39045  0.39045  0.00000  0.21909

   Total alpha = 20.00000, Total beta = 20.00000, Total charge =  0.00000


*** PSI4 exiting successfully. Buy a developer a beer!
