    -----------------------------------------------------------------------
          Psi4: An Open-Source Ab Initio Electronic Structure Package
                              Psi4 (no tag) Driver

                          Git: Rev {detached?}  

    J. M. Turney, A. C. Simmonett, R. M. Parrish, E. G. Hohenstein,
    F. A. Evangelista, J. T. Fermann, B. J. Mintz, L. A. Burns, J. J. Wilke,
    M. L. Abrams, N. J. Russ, M. L. Leininger, C. L. Janssen, E. T. Seidl,
    W. D. Allen, H. F. Schaefer, R. A. King, E. F. Valeev, C. D. Sherrill,
    and T. D. Crawford, WIREs Comput. Mol. Sci. 2, 556-565 (2012)
    (doi: 10.1002/wcms.93)

                         Additional Contributions by
    A. E. DePrince, M. Saitow, U. Bozkaya, A. Yu. Sokolov
    -----------------------------------------------------------------------


    Psi4 started on: Tue Jul  5 16:28:53 2016

    Process ID:   9084
    PSI4DATADIR: /export131/home/mjharvey/miniconda3/share
    Memory level set to 256.000 MB

  ==> Input File <==

--------------------------------------------------------------------------
set {
	reference rhf
	basis 6-31G*
}


set_num_threads( 1 )
memory 2 gb

molecule MOL {
0 1

O	 -0.291588	 1.323876	 -0.000732
C	 -0.449615	 0.146421	 0.000961
C	 -1.783254	 -0.549260	 -0.000296
O	 0.550861	 -0.724511	 0.000672
H	 -1.863498	 -1.185310	 -0.874187
H	 -2.574632	 0.185319	 -0.002793
H	 -1.866374	 -1.182320	 0.875436
C	 1.863989	 -0.193498	 -0.000319
H	 2.028899	 0.409345	 -0.881648
H	 2.526301	 -1.045021	 -0.000003
H	 2.029560	 0.410616	 0.880008

	symmetry c1
}
ee = energy('scf')
oeprop('DIPOLE', 'QUADRUPOLE', 'MULLIKEN_CHARGES')
oeprop('GRID_ESP')
f=open( 'psi4out.xyz', 'w' )
f.write( "11  " )
f.write( str(ee) + "\n" )
f.write( MOL.save_string_xyz() )
f.close()
--------------------------------------------------------------------------

  Memory set to   2.000 GiB by Python script.

*** tstart() called on cx1-1-4-3.cx1.hpc.ic.ac.uk
*** at Tue Jul  5 16:28:54 2016


         ---------------------------------------------------------
                                   SCF
            by Justin Turney, Rob Parrish, and Andy Simmonett
                              RHF Reference
                        1 Threads,   2000 MiB Core
         ---------------------------------------------------------

  ==> Geometry <==

    Molecular point group: c1
    Full point group: C1

    Geometry (in Angstrom), charge = 0, multiplicity = 1:

       Center              X                  Y                   Z               Mass       
    ------------   -----------------  -----------------  -----------------  -----------------
           O         -0.291627689873     1.323814689315    -0.000731734818    15.994914619560
           C         -0.449654689873     0.146359689315     0.000961265182    12.000000000000
           C         -1.783293689873    -0.549321310685    -0.000295734818    12.000000000000
           O          0.550821310127    -0.724572310685     0.000672265182    15.994914619560
           H         -1.863537689873    -1.185371310685    -0.874186734818     1.007825032070
           H         -2.574671689873     0.185257689315    -0.002792734818     1.007825032070
           H         -1.866413689873    -1.182381310685     0.875436265182     1.007825032070
           C          1.863949310127    -0.193559310685    -0.000318734818    12.000000000000
           H          2.028859310127     0.409283689315    -0.881647734818     1.007825032070
           H          2.526261310127    -1.045082310685    -0.000002734818     1.007825032070
           H          2.029520310127     0.410554689315     0.880008265182     1.007825032070

  Running in c1 symmetry.

  Rotational constants: A =      0.35090  B =      0.14031  C =      0.10408 [cm^-1]
  Rotational constants: A =  10519.60088  B =   4206.50510  C =   3120.18219 [MHz]
  Nuclear repulsion =  183.336010227405296

  Charge       = 0
  Multiplicity = 1
  Electrons    = 40
  Nalpha       = 20
  Nbeta        = 20

  ==> Algorithm <==

  SCF Algorithm Type is DF.
  DIIS enabled.
  MOM disabled.
  Fractional occupation disabled.
  Guess Type is CORE.
  Energy threshold   = 1.00e-06
  Density threshold  = 1.00e-06
  Integral threshold = 0.00e+00

  ==> Primary Basis <==

  Basis Set: 6-31G*
    Number of shells: 42
    Number of basis function: 87
    Number of Cartesian functions: 87
    Spherical Harmonics?: false
    Max angular momentum: 2

  ==> Pre-Iterations <==

   -------------------------------------------------------
    Irrep   Nso     Nmo     Nalpha   Nbeta   Ndocc  Nsocc
   -------------------------------------------------------
     A         87      87       0       0       0       0
   -------------------------------------------------------
    Total      87      87      20      20      20       0
   -------------------------------------------------------

 OEINTS: Overlap, kinetic, potential, dipole, and quadrupole integrals
         stored in file 35.

  ==> Integral Setup <==

  ==> DFJK: Density-Fitted J/K Matrices <==

    J tasked:                  Yes
    K tasked:                  Yes
    wK tasked:                  No
    OpenMP threads:              1
    Integrals threads:           1
    Memory (MB):              1430
    Algorithm:                Core
    Integral Cache:           NONE
    Schwarz Cutoff:          1E-12
    Fitting Condition:       1E-12

   => Auxiliary Basis Set <=

  Basis Set: 
    Number of shells: 174
    Number of basis function: 555
    Number of Cartesian functions: 555
    Spherical Harmonics?: false
    Max angular momentum: 3

  Minimum eigenvalue in the overlap matrix is 3.9485283635E-03.
  Using Symmetric Orthogonalization.
  SCF Guess: Core (One-Electron) Hamiltonian.

  ==> Iterations <==

                           Total Energy        Delta E     RMS |[F,P]|

   @DF-RHF iter   1:  -212.72279099509220   -2.12723e+02   8.81083e-02 
   @DF-RHF iter   2:  -210.02314028980996    2.69965e+00   6.21847e-02 DIIS
   @DF-RHF iter   3:  -240.39796641794683   -3.03748e+01   6.68199e-02 DIIS
   @DF-RHF iter   4:  -257.48195506205229   -1.70840e+01   4.28022e-02 DIIS
   @DF-RHF iter   5:  -263.48418263944620   -6.00223e+00   2.23465e-02 DIIS
   @DF-RHF iter   6:  -266.28107462987600   -2.79689e+00   1.18373e-02 DIIS
   @DF-RHF iter   7:  -266.80814638178686   -5.27072e-01   2.32628e-03 DIIS
   @DF-RHF iter   8:  -266.83306352998216   -2.49171e-02   8.97299e-04 DIIS
   @DF-RHF iter   9:  -266.83584081632807   -2.77729e-03   3.89277e-04 DIIS
   @DF-RHF iter  10:  -266.83639123622390   -5.50420e-04   9.15309e-05 DIIS
   @DF-RHF iter  11:  -266.83643890098062   -4.76648e-05   2.45077e-05 DIIS
   @DF-RHF iter  12:  -266.83644202100083   -3.12002e-06   7.10100e-06 DIIS
   @DF-RHF iter  13:  -266.83644231731648   -2.96316e-07   1.70897e-06 DIIS
   @DF-RHF iter  14:  -266.83644233816028   -2.08438e-08   4.00123e-07 DIIS

  ==> Post-Iterations <==

    Orbital Energies (a.u.)
    -----------------------

    Doubly Occupied:                                                      

       1A    -20.605920     2A    -20.546553     3A    -11.376474  
       4A    -11.282158     5A    -11.234761     6A     -1.471296  
       7A     -1.364559     8A     -1.035985     9A     -0.952975  
      10A     -0.778259    11A     -0.695819    12A     -0.681207  
      13A     -0.677229    14A     -0.595202    15A     -0.592034  
      16A     -0.560739    17A     -0.524697    18A     -0.524014  
      19A     -0.458038    20A     -0.442420  

    Virtual:                                                              

      21A      0.197265    22A      0.249417    23A      0.265458  
      24A      0.298790    25A      0.312395    26A      0.314493  
      27A      0.337714    28A      0.349745    29A      0.411616  
      30A      0.501388    31A      0.547440    32A      0.722348  
      33A      0.729463    34A      0.755459    35A      0.775613  
      36A      0.812362    37A      0.814064    38A      0.855708  
      39A      0.921090    40A      0.986234    41A      1.041226  
      42A      1.102808    43A      1.121774    44A      1.122808  
      45A      1.134705    46A      1.188342    47A      1.197924  
      48A      1.212802    49A      1.230335    50A      1.281152  
      51A      1.356597    52A      1.370159    53A      1.381783  
      54A      1.497258    55A      1.640094    56A      1.661991  
      57A      1.730727    58A      1.806460    59A      1.823122  
      60A      1.924097    61A      1.997068    62A      2.060273  
      63A      2.099538    64A      2.151502    65A      2.205094  
      66A      2.292920    67A      2.361426    68A      2.393020  
      69A      2.438274    70A      2.468013    71A      2.530454  
      72A      2.557647    73A      2.680961    74A      2.683485  
      75A      2.720799    76A      2.821812    77A      2.949889  
      78A      3.059395    79A      3.128977    80A      3.340517  
      81A      3.399876    82A      3.544865    83A      4.406673  
      84A      4.511587    85A      4.597230    86A      4.692591  
      87A      4.883589  

    Final Occupation by Irrep:
              A 
    DOCC [    20 ]

  Energy converged.

  @DF-RHF Final Energy:  -266.83644233816028

   => Energetics <=

    Nuclear Repulsion Energy =            183.3360102274052963
    One-Electron Energy =                -727.5443296662600687
    Two-Electron Energy =                 277.3718771006944053
    DFT Exchange-Correlation Energy =       0.0000000000000000
    Empirical Dispersion Energy =           0.0000000000000000
    PCM Polarization Energy =               0.0000000000000000
    EFP Energy =                            0.0000000000000000
    Total Energy =                       -266.8364423381603956

    Alert: EFP and PCM quantities not currently incorporated into SCF psivars.

Properties will be evaluated at   0.000000,   0.000000,   0.000000 Bohr
  ==> Properties <==


Properties computed using the SCF density matrix

  Nuclear Dipole Moment: (a.u.)
     X:     0.2638      Y:    -2.2543      Z:    -0.0030

  Electronic Dipole Moment: (a.u.)
     X:    -0.1129      Y:     1.4870      Z:     0.0037

  Dipole Moment: (a.u.)
     X:     0.1508      Y:    -0.7673      Z:     0.0007     Total:     0.7820

  Dipole Moment: (Debye)
     X:     0.3834      Y:    -1.9503      Z:     0.0019     Total:     1.9876


  Saving occupied orbitals to File 180.

*** tstop() called on cx1-1-4-3.cx1.hpc.ic.ac.uk at Tue Jul  5 16:28:57 2016
Module time:
	user time   =       3.43 seconds =       0.06 minutes
	system time =       0.03 seconds =       0.00 minutes
	total time  =          3 seconds =       0.05 minutes
Total time:
	user time   =       3.43 seconds =       0.06 minutes
	system time =       0.03 seconds =       0.00 minutes
	total time  =          3 seconds =       0.05 minutes


Properties will be evaluated at   0.000000,   0.000000,   0.000000 Bohr

Properties computed using the  density matrix

  Nuclear Dipole Moment: (a.u.)
     X:     0.2638      Y:    -2.2543      Z:    -0.0030

  Electronic Dipole Moment: (a.u.)
     X:    -0.1129      Y:     1.4870      Z:     0.0037

  Dipole Moment: (a.u.)
     X:     0.1508      Y:    -0.7673      Z:     0.0007     Total:     0.7820

  Dipole Moment: (Debye)
     X:     0.3834      Y:    -1.9503      Z:     0.0019     Total:     1.9876

  Quadrupole Moment: (Debye Ang)
    XX:   -23.7995     YY:   -35.2783     ZZ:   -28.9687
    XY:     1.5356     XZ:    -0.0022     YZ:     0.0049

  Traceless Quadrupole Moment: (Debye Ang)
    XX:     5.5494     YY:    -5.9295     ZZ:     0.3801
    XY:     1.5356     XZ:    -0.0022     YZ:     0.0049

  Mulliken Charges: (a.u.)
   Center  Symbol    Alpha    Beta     Spin     Total
       1     O     4.28202  4.28202  0.00000 -0.56405
       2     C     2.62257  2.62257  0.00000  0.75486
       3     C     3.28176  3.28176  0.00000 -0.56351
       4     O     4.29930  4.29930  0.00000 -0.59860
       5     H     0.39986  0.39986  0.00000  0.20028
       6     H     0.39656  0.39656  0.00000  0.20687
       7     H     0.39992  0.39992  0.00000  0.20016
       8     C     3.09250  3.09250  0.00000 -0.18501
       9     H     0.40857  0.40857  0.00000  0.18285
      10     H     0.40835  0.40835  0.00000  0.18331
      11     H     0.40859  0.40859  0.00000  0.18283

   Total alpha = 20.00000, Total beta = 20.00000, Total charge = -0.00000



Properties will be evaluated at   0.000000,   0.000000,   0.000000 Bohr

Properties computed using the  density matrix


 Electrostatic potential computed on the grid and written to grid_esp.dat

*** PSI4 exiting successfully. Buy a developer a beer!
