    -----------------------------------------------------------------------
          Psi4: An Open-Source Ab Initio Electronic Structure Package
                              Psi4 (no tag) Driver

                          Git: Rev {detached?}  

    J. M. Turney, A. C. Simmonett, R. M. Parrish, E. G. Hohenstein,
    F. A. Evangelista, J. T. Fermann, B. J. Mintz, L. A. Burns, J. J. Wilke,
    M. L. Abrams, N. J. Russ, M. L. Leininger, C. L. Janssen, E. T. Seidl,
    W. D. Allen, H. F. Schaefer, R. A. King, E. F. Valeev, C. D. Sherrill,
    and T. D. Crawford, WIREs Comput. Mol. Sci. 2, 556-565 (2012)
    (doi: 10.1002/wcms.93)

                         Additional Contributions by
    A. E. DePrince, M. Saitow, U. Bozkaya, A. Yu. Sokolov
    -----------------------------------------------------------------------


    Psi4 started on: Tue Jul  5 16:37:16 2016

    Process ID:  15044
    PSI4DATADIR: /export131/home/mjharvey/miniconda3/share
    Memory level set to 256.000 MB

  ==> Input File <==

--------------------------------------------------------------------------
set {
	reference rhf
	basis 6-31G*
}


set_num_threads( 1 )
memory 2 gb

molecule MOL {
0 1

O	 0.968737	 -0.101610	 -0.705824
C	 0.028650	 0.075053	 -0.000277
C	 -1.233602	 -0.752807	 0.000328
O	 -0.033267	 1.047919	 0.899501
C	 -2.501530	 0.091881	 0.000126
H	 -1.193807	 -1.406641	 -0.865785
H	 -1.193516	 -1.405779	 0.867015
H	 -2.545121	 0.729328	 -0.874513
H	 -3.377167	 -0.548497	 0.000561
H	 -2.544818	 0.730135	 0.874258
C	 0.850044	 2.141145	 0.725700
H	 1.877367	 1.807851	 0.756265
H	 0.650731	 2.814533	 1.544654
H	 0.664106	 2.633508	 -0.217951

	symmetry c1
}
set optking {
	frozen_dihedral = ("
		4 2 3 6
	")
}

ee = energy('scf')
oeprop('DIPOLE', 'QUADRUPOLE', 'MULLIKEN_CHARGES')
f=open( 'psi4out.xyz', 'w' )
f.write( "14  " )
f.write( str(ee) + "\n" )
f.write( MOL.save_string_xyz() )
f.close()
--------------------------------------------------------------------------

  Memory set to   2.000 GiB by Python script.

*** tstart() called on cx1-1-4-4.cx1.hpc.ic.ac.uk
*** at Tue Jul  5 16:37:17 2016


         ---------------------------------------------------------
                                   SCF
            by Justin Turney, Rob Parrish, and Andy Simmonett
                              RHF Reference
                        1 Threads,   2000 MiB Core
         ---------------------------------------------------------

  ==> Geometry <==

    Molecular point group: c1
    Full point group: C1

    Geometry (in Angstrom), charge = 0, multiplicity = 1:

       Center              X                  Y                   Z               Mass       
    ------------   -----------------  -----------------  -----------------  -----------------
           O          1.275789009036    -0.546750838615    -0.863788822426    15.994914619560
           C          0.335702009036    -0.370087838615    -0.158241822426    12.000000000000
           C         -0.926549990964    -1.197947838615    -0.157636822426    12.000000000000
           O          0.273785009036     0.602778161385     0.741536177574    15.994914619560
           C         -2.194477990964    -0.353259838615    -0.157838822426    12.000000000000
           H         -0.886754990964    -1.851781838615    -1.023749822426     1.007825032070
           H         -0.886463990964    -1.850919838615     0.709050177574     1.007825032070
           H         -2.238068990964     0.284187161385    -1.032477822426     1.007825032070
           H         -3.070114990964    -0.993637838615    -0.157403822426     1.007825032070
           H         -2.237765990964     0.284994161385     0.716293177574     1.007825032070
           C          1.157096009036     1.696004161385     0.567735177574    12.000000000000
           H          2.184419009036     1.362710161385     0.598300177574     1.007825032070
           H          0.957783009036     2.369392161385     1.386689177574     1.007825032070
           H          0.971158009036     2.188367161385    -0.375915822426     1.007825032070

  Running in c1 symmetry.

  Rotational constants: A =      0.19662  B =      0.09184  C =      0.06855 [cm^-1]
  Rotational constants: A =   5894.55818  B =   2753.18659  C =   2054.93966 [MHz]
  Nuclear repulsion =  249.267400904850632

  Charge       = 0
  Multiplicity = 1
  Electrons    = 48
  Nalpha       = 24
  Nbeta        = 24

  ==> Algorithm <==

  SCF Algorithm Type is DF.
  DIIS enabled.
  MOM disabled.
  Fractional occupation disabled.
  Guess Type is CORE.
  Energy threshold   = 1.00e-06
  Density threshold  = 1.00e-06
  Integral threshold = 0.00e+00

  ==> Primary Basis <==

  Basis Set: 6-31G*
    Number of shells: 52
    Number of basis function: 106
    Number of Cartesian functions: 106
    Spherical Harmonics?: false
    Max angular momentum: 2

  ==> Pre-Iterations <==

   -------------------------------------------------------
    Irrep   Nso     Nmo     Nalpha   Nbeta   Ndocc  Nsocc
   -------------------------------------------------------
     A        106     106       0       0       0       0
   -------------------------------------------------------
    Total     106     106      24      24      24       0
   -------------------------------------------------------

 OEINTS: Overlap, kinetic, potential, dipole, and quadrupole integrals
         stored in file 35.

  ==> Integral Setup <==

  ==> DFJK: Density-Fitted J/K Matrices <==

    J tasked:                  Yes
    K tasked:                  Yes
    wK tasked:                  No
    OpenMP threads:              1
    Integrals threads:           1
    Memory (MB):              1430
    Algorithm:                Core
    Integral Cache:           NONE
    Schwarz Cutoff:          1E-12
    Fitting Condition:       1E-12

   => Auxiliary Basis Set <=

  Basis Set: 
    Number of shells: 216
    Number of basis function: 686
    Number of Cartesian functions: 686
    Spherical Harmonics?: false
    Max angular momentum: 3

  Minimum eigenvalue in the overlap matrix is 3.4127880735E-03.
  Using Symmetric Orthogonalization.
  SCF Guess: Core (One-Electron) Hamiltonian.

  ==> Iterations <==

                           Total Energy        Delta E     RMS |[F,P]|

   @DF-RHF iter   1:  -227.25683511454386   -2.27257e+02   8.58976e-02 
   @DF-RHF iter   2:  -204.46206996318418    2.27948e+01   6.78403e-02 DIIS
   @DF-RHF iter   3:  -278.02907203076768   -7.35670e+01   4.69322e-02 DIIS
   @DF-RHF iter   4:  -294.69744650206519   -1.66684e+01   3.57154e-02 DIIS
   @DF-RHF iter   5:  -302.27889024631543   -7.58144e+00   1.84281e-02 DIIS
   @DF-RHF iter   6:  -305.72892468738121   -3.45003e+00   5.12012e-03 DIIS
   @DF-RHF iter   7:  -305.83772910003302   -1.08804e-01   2.40241e-03 DIIS
   @DF-RHF iter   8:  -305.86264826832519   -2.49192e-02   7.93373e-04 DIIS
   @DF-RHF iter   9:  -305.86672911264895   -4.08084e-03   2.80302e-04 DIIS
   @DF-RHF iter  10:  -305.86726198737381   -5.32875e-04   9.12167e-05 DIIS
   @DF-RHF iter  11:  -305.86733495567807   -7.29683e-05   2.19064e-05 DIIS
   @DF-RHF iter  12:  -305.86733981805901   -4.86238e-06   6.56896e-06 DIIS
   @DF-RHF iter  13:  -305.86734036299492   -5.44936e-07   1.96220e-06 DIIS
   @DF-RHF iter  14:  -305.86734041279408   -4.97992e-08   6.78563e-07 DIIS

  ==> Post-Iterations <==

    Orbital Energies (a.u.)
    -----------------------

    Doubly Occupied:                                                      

       1A    -20.603160     2A    -20.545898     3A    -11.372713  
       4A    -11.282958     5A    -11.237844     6A    -11.223704  
       7A     -1.469816     8A     -1.363229     9A     -1.068672  
      10A     -0.975706    11A     -0.886200    12A     -0.775347  
      13A     -0.698392    14A     -0.678969    15A     -0.672920  
      16A     -0.619778    17A     -0.588938    18A     -0.567911  
      19A     -0.545519    20A     -0.523554    21A     -0.514092  
      22A     -0.497733    23A     -0.456021    24A     -0.433972  

    Virtual:                                                              

      25A      0.189273    26A      0.244063    27A      0.262934  
      28A      0.290969    29A      0.302469    30A      0.312467  
      31A      0.319250    32A      0.323349    33A      0.335686  
      34A      0.350052    35A      0.406153    36A      0.439545  
      37A      0.510931    38A      0.569998    39A      0.712573  
      40A      0.727887    41A      0.735637    42A      0.756828  
      43A      0.767331    44A      0.794972    45A      0.810908  
      46A      0.896995    47A      0.932698    48A      0.976608  
      49A      0.981389    50A      1.004962    51A      1.061293  
      52A      1.117107    53A      1.123845    54A      1.130537  
      55A      1.143215    56A      1.166294    57A      1.194007  
      58A      1.209091    59A      1.225649    60A      1.233748  
      61A      1.259514    62A      1.267549    63A      1.361739  
      64A      1.367765    65A      1.401318    66A      1.482954  
      67A      1.563663    68A      1.653232    69A      1.711875  
      70A      1.775224    71A      1.820707    72A      1.862302  
      73A      1.902257    74A      1.967939    75A      2.020604  
      76A      2.071536    77A      2.124762    78A      2.175741  
      79A      2.196113    80A      2.246520    81A      2.272788  
      82A      2.356122    83A      2.365764    84A      2.404814  
      85A      2.435735    86A      2.502217    87A      2.590486  
      88A      2.632599    89A      2.655015    90A      2.672850  
      91A      2.712715    92A      2.751663    93A      2.834010  
      94A      2.924289    95A      2.962537    96A      3.100779  
      97A      3.159010    98A      3.344510    99A      3.414133  
     100A      3.544475   101A      4.409769   102A      4.526274  
     103A      4.652575   104A      4.690871   105A      4.766286  
     106A      4.960397  

    Final Occupation by Irrep:
              A 
    DOCC [    24 ]

  Energy converged.

  @DF-RHF Final Energy:  -305.86734041279408

   => Energetics <=

    Nuclear Repulsion Energy =            249.2674009048506321
    One-Electron Energy =                -911.0633713716616739
    Two-Electron Energy =                 355.9286300540163666
    DFT Exchange-Correlation Energy =       0.0000000000000000
    Empirical Dispersion Energy =           0.0000000000000000
    PCM Polarization Energy =               0.0000000000000000
    EFP Energy =                            0.0000000000000000
    Total Energy =                       -305.8673404127946469

    Alert: EFP and PCM quantities not currently incorporated into SCF psivars.

Properties will be evaluated at   0.000000,   0.000000,   0.000000 Bohr
  ==> Properties <==


Properties computed using the SCF density matrix

  Nuclear Dipole Moment: (a.u.)
     X:    -4.8728      Y:     1.6814      Z:     0.7689

  Electronic Dipole Moment: (a.u.)
     X:     4.2615      Y:    -1.2388      Z:    -0.3514

  Dipole Moment: (a.u.)
     X:    -0.6113      Y:     0.4426      Z:     0.4175     Total:     0.8625

  Dipole Moment: (Debye)
     X:    -1.5538      Y:     1.1250      Z:     1.0612     Total:     2.1922


  Saving occupied orbitals to File 180.

*** tstop() called on cx1-1-4-4.cx1.hpc.ic.ac.uk at Tue Jul  5 16:37:23 2016
Module time:
	user time   =       6.09 seconds =       0.10 minutes
	system time =       0.05 seconds =       0.00 minutes
	total time  =          6 seconds =       0.10 minutes
Total time:
	user time   =       6.09 seconds =       0.10 minutes
	system time =       0.05 seconds =       0.00 minutes
	total time  =          6 seconds =       0.10 minutes


Properties will be evaluated at   0.000000,   0.000000,   0.000000 Bohr

Properties computed using the  density matrix

  Nuclear Dipole Moment: (a.u.)
     X:    -4.8728      Y:     1.6814      Z:     0.7689

  Electronic Dipole Moment: (a.u.)
     X:     4.2615      Y:    -1.2388      Z:    -0.3514

  Dipole Moment: (a.u.)
     X:    -0.6113      Y:     0.4426      Z:     0.4175     Total:     0.8625

  Dipole Moment: (Debye)
     X:    -1.5538      Y:     1.1250      Z:     1.0612     Total:     2.1922

  Quadrupole Moment: (Debye Ang)
    XX:   -37.8263     YY:   -32.6403     ZZ:   -38.5286
    XY:     4.3733     XZ:     3.5403     YZ:    -0.8104

  Traceless Quadrupole Moment: (Debye Ang)
    XX:    -1.4945     YY:     3.6914     ZZ:    -2.1969
    XY:     4.3733     XZ:     3.5403     YZ:    -0.8104

  Mulliken Charges: (a.u.)
   Center  Symbol    Alpha    Beta     Spin     Total
       1     O     4.28353  4.28353  0.00000 -0.56706
       2     C     2.61174  2.61174  0.00000  0.77652
       3     C     3.20266  3.20266  0.00000 -0.40532
       4     O     4.30251  4.30251  0.00000 -0.60502
       5     C     3.24713  3.24713  0.00000 -0.49425
       6     H     0.39813  0.39813  0.00000  0.20375
       7     H     0.40098  0.40098  0.00000  0.19804
       8     H     0.41564  0.41564  0.00000  0.16873
       9     H     0.41384  0.41384  0.00000  0.17232
      10     H     0.40510  0.40510  0.00000  0.18979
      11     C     3.09334  3.09334  0.00000 -0.18667
      12     H     0.40425  0.40425  0.00000  0.19149
      13     H     0.40820  0.40820  0.00000  0.18361
      14     H     0.41297  0.41297  0.00000  0.17407

   Total alpha = 24.00000, Total beta = 24.00000, Total charge =  0.00000


*** PSI4 exiting successfully. Buy a developer a beer!
