
    -----------------------------------------------------------------------
          Psi4: An Open-Source Ab Initio Electronic Structure Package
                               Psi4 1.1 release

                         Git: Rev {HEAD} add49b9 


    R. M. Parrish, L. A. Burns, D. G. A. Smith, A. C. Simmonett,
    A. E. DePrince III, E. G. Hohenstein, U. Bozkaya, A. Yu. Sokolov,
    R. Di Remigio, R. M. Richard, J. F. Gonthier, A. M. James,
    H. R. McAlexander, A. Kumar, M. Saitow, X. Wang, B. P. Pritchard,
    P. Verma, H. F. Schaefer III, K. Patkowski, R. A. King, E. F. Valeev,
    F. A. Evangelista, J. M. Turney, T. D. Crawford, and C. D. Sherrill,
    J. Chem. Theory Comput. in press (2017).
    (doi: 10.1021/acs.jctc.7b00174)

    -----------------------------------------------------------------------


    Psi4 started on: Tuesday, 12 December 2017 11:17AM

    Process ID:  26764
    PSIDATADIR: /shared/raimis/opt/miniconda/envs/htmd/share/psi4
    Memory:     500.0 MiB
    Threads:    1
    
  ==> Input File <==

--------------------------------------------------------------------------
set_num_threads(1)
set_memory(4203741184)

set { reference rks }
set { basis cc-pVDZ }

molecule MOL {
    0 1
    noreorient
    nocom
    symmetry c1
    O    1.050400   0.042900  -0.048100
    C    2.474100   0.047400  -0.029000
    C    3.002600  -1.068900  -0.932000
    N    2.002702  -1.513139  -1.901719
    H    0.760400   0.728400   0.578000
    H    2.809900  -0.097900   1.003200
    H    2.817400   1.026800  -0.378600
    H    3.327705  -1.918608  -0.320411
    H    3.893616  -0.714138  -1.462368
    H    1.226178  -1.952760  -1.408541
    H    2.412327  -2.243379  -2.484134
}

set optking { frozen_dihedral = (" 1 2 3 4 ") }

energy, wfn = energy('B3LYP-D3', return_wfn=True)

import os
os.chdir(os.environ['HTMD_PSI4_WORKDIR'])

oeprop(wfn, 'DIPOLE', 'QUADRUPOLE', 'MULLIKEN_CHARGES')

with open('psi4out.xyz', 'w') as f:
    f.write('11 ' )
    f.write('%.12f\n' % energy)
    f.write(MOL.save_string_xyz())
--------------------------------------------------------------------------
  Threads set to 1 by Python driver.

  Memory set to   3.915 GiB by Python driver.

*** tstart() called on computer06
*** at Tue Dec 12 11:17:27 2017

   => Loading Basis Set <=

    Name: CC-PVDZ
    Role: ORBITAL
    Keyword: BASIS
    atoms 1    entry O          line   190 file /shared/raimis/opt/miniconda/envs/htmd/share/psi4/basis/cc-pvdz.gbs 
    atoms 2-3  entry C          line   130 file /shared/raimis/opt/miniconda/envs/htmd/share/psi4/basis/cc-pvdz.gbs 
    atoms 4    entry N          line   160 file /shared/raimis/opt/miniconda/envs/htmd/share/psi4/basis/cc-pvdz.gbs 
    atoms 5-11 entry H          line    20 file /shared/raimis/opt/miniconda/envs/htmd/share/psi4/basis/cc-pvdz.gbs 


         ---------------------------------------------------------
                                   SCF
            by Justin Turney, Rob Parrish, and Andy Simmonett
                              RKS Reference
                        1 Threads,   4009 MiB Core
         ---------------------------------------------------------

  ==> Geometry <==

    Molecular point group: c1
    Full point group: C1

    Geometry (in Angstrom), charge = 0, multiplicity = 1:

       Center              X                  Y                   Z               Mass       
    ------------   -----------------  -----------------  -----------------  -----------------
           O          1.050400000000     0.042900000000    -0.048100000000    15.994914619560
           C          2.474100000000     0.047400000000    -0.029000000000    12.000000000000
           C          3.002600000000    -1.068900000000    -0.932000000000    12.000000000000
           N          2.002702000000    -1.513139000000    -1.901719000000    14.003074004780
           H          0.760400000000     0.728400000000     0.578000000000     1.007825032070
           H          2.809900000000    -0.097900000000     1.003200000000     1.007825032070
           H          2.817400000000     1.026800000000    -0.378600000000     1.007825032070
           H          3.327705000000    -1.918608000000    -0.320411000000     1.007825032070
           H          3.893616000000    -0.714138000000    -1.462368000000     1.007825032070
           H          1.226178000000    -1.952760000000    -1.408541000000     1.007825032070
           H          2.412327000000    -2.243379000000    -2.484134000000     1.007825032070

  Running in c1 symmetry.

  Rotational constants: A =      0.28635  B =      0.04380  C =      0.03874 [cm^-1]
  Rotational constants: A =   8584.70063  B =   1312.95267  C =   1161.37087 [MHz]
  Nuclear repulsion =  134.078438213389632

  Charge       = 0
  Multiplicity = 1
  Electrons    = 34
  Nalpha       = 17
  Nbeta        = 17

  ==> Algorithm <==

  SCF Algorithm Type is DF.
  DIIS enabled.
  MOM disabled.
  Fractional occupation disabled.
  Guess Type is SAD.
  Energy threshold   = 1.00e-06
  Density threshold  = 1.00e-06
  Integral threshold = 0.00e+00

  ==> Primary Basis <==

  Basis Set: CC-PVDZ
    Blend: CC-PVDZ
    Number of shells: 45
    Number of basis function: 91
    Number of Cartesian functions: 95
    Spherical Harmonics?: true
    Max angular momentum: 2

  ==> DFT Potential <==

   => B3LYP Composite Functional <= 

    B3LYP Hybrid-GGA Exchange-Correlation Functional (VWN1-RPA)

    P.J. Stephens et. al., J. Phys. Chem., 98, 11623-11627, 1994

    Points   =           5000
    Deriv    =              1
    GGA      =           TRUE
    Meta     =          FALSE

    X_LRC        =          FALSE
    X_Hybrid     =           TRUE
    X_Alpha      =   2.000000E-01
    X_Omega      =   0.000000E+00
    C_LRC        =          FALSE
    C_Hybrid     =          FALSE
    C_Alpha      =   0.000000E+00
    C_Omega      =   0.000000E+00

   => Exchange Functionals <=

    0.8000    B3_X
    0.2000      HF 

   => Correlation Functionals <=

    0.1900 VWN3RPA_C
    0.8100   LYP_C

   => Molecular Quadrature <=

    Radial Scheme    =       TREUTLER
    Pruning Scheme   =           FLAT
    Nuclear Scheme   =       TREUTLER

    BS radius alpha  =              1
    Pruning alpha    =              1
    Radial Points    =             75
    Spherical Points =            302
    Total Points     =         245099
    Total Blocks     =            216
    Max Points       =           4973
    Max Functions    =             91

   => -D3ZERO: Empirical Dispersion <=

    Grimme's -D3 (zero-damping) Dispersion Correction
    Grimme S.; Antony J.; Ehrlich S.; Krieg H. (2010), J. Chem. Phys., 132: 154104

        S6 =   1.000000E+00
        S8 =   1.703000E+00
       SR6 =   1.261000E+00
    ALPHA6 =   1.400000E+01

   => Loading Basis Set <=

    Name: (CC-PVDZ AUX)
    Role: JKFIT
    Keyword: DF_BASIS_SCF
    atoms 1    entry O          line   220 file /shared/raimis/opt/miniconda/envs/htmd/share/psi4/basis/cc-pvdz-jkfit.gbs 
    atoms 2-3  entry C          line   120 file /shared/raimis/opt/miniconda/envs/htmd/share/psi4/basis/cc-pvdz-jkfit.gbs 
    atoms 4    entry N          line   170 file /shared/raimis/opt/miniconda/envs/htmd/share/psi4/basis/cc-pvdz-jkfit.gbs 
    atoms 5-11 entry H          line    50 file /shared/raimis/opt/miniconda/envs/htmd/share/psi4/basis/cc-pvdz-jkfit.gbs 

  ==> Pre-Iterations <==

   -------------------------------------------------------
    Irrep   Nso     Nmo     Nalpha   Nbeta   Ndocc  Nsocc
   -------------------------------------------------------
     A         91      91       0       0       0       0
   -------------------------------------------------------
    Total      91      91      17      17      17       0
   -------------------------------------------------------

  ==> Integral Setup <==

  ==> DFJK: Density-Fitted J/K Matrices <==

    J tasked:                  Yes
    K tasked:                  Yes
    wK tasked:                  No
    OpenMP threads:              1
    Integrals threads:           1
    Memory (MB):              3006
    Algorithm:                Core
    Integral Cache:           NONE
    Schwarz Cutoff:          1E-12
    Fitting Condition:       1E-12

   => Auxiliary Basis Set <=

  Basis Set: (CC-PVDZ AUX)
    Blend: CC-PVDZ-JKFIT
    Number of shells: 159
    Number of basis function: 441
    Number of Cartesian functions: 499
    Spherical Harmonics?: true
    Max angular momentum: 3

  Minimum eigenvalue in the overlap matrix is 4.4482903205E-03.
  Using Symmetric Orthogonalization.

  SCF Guess: Superposition of Atomic Densities via on-the-fly atomic UHF.

  ==> Iterations <==

                           Total Energy        Delta E     RMS |[F,P]|

   @DF-RKS iter   0:  -210.87405440578658   -2.10874e+02   3.68268e-02 
   @DF-RKS iter   1:  -210.21969049375514    6.54364e-01   6.80821e-03 
   @DF-RKS iter   2:  -210.05166902094885    1.68021e-01   9.88959e-03 DIIS
   @DF-RKS iter   3:  -210.38331048017741   -3.31641e-01   6.44517e-04 DIIS
   @DF-RKS iter   4:  -210.38438703187165   -1.07655e-03   3.60689e-04 DIIS
   @DF-RKS iter   5:  -210.38485451242977   -4.67481e-04   6.61587e-05 DIIS
   @DF-RKS iter   6:  -210.38486977283000   -1.52604e-05   1.56975e-05 DIIS
   @DF-RKS iter   7:  -210.38487060073490   -8.27905e-07   4.51147e-06 DIIS
   @DF-RKS iter   8:  -210.38487067342066   -7.26858e-08   6.81436e-07 DIIS

  ==> Post-Iterations <==

    Orbital Energies (a.u.)
    -----------------------

    Doubly Occupied:                                                      

       1A    -19.125880     2A    -14.292635     3A    -10.223376  
       4A    -10.200952     5A     -1.009341     6A     -0.865513  
       7A     -0.714279     8A     -0.590637     9A     -0.514088  
      10A     -0.474676    11A     -0.449499    12A     -0.408965  
      13A     -0.389952    14A     -0.356081    15A     -0.325152  
      16A     -0.262222    17A     -0.216583  

    Virtual:                                                              

      18A      0.044533    19A      0.083635    20A      0.093345  
      21A      0.104223    22A      0.139138    23A      0.147886  
      24A      0.181647    25A      0.185804    26A      0.242315  
      27A      0.292800    28A      0.449217    29A      0.462898  
      30A      0.489877    31A      0.515829    32A      0.542359  
      33A      0.557873    34A      0.592629    35A      0.621173  
      36A      0.637797    37A      0.650217    38A      0.663891  
      39A      0.699240    40A      0.727119    41A      0.765290  
      42A      0.822398    43A      0.847816    44A      0.924524  
      45A      0.953991    46A      0.991291    47A      1.037981  
      48A      1.068337    49A      1.215748    50A      1.223110  
      51A      1.248078    52A      1.260881    53A      1.347210  
      54A      1.365631    55A      1.462096    56A      1.497773  
      57A      1.542342    58A      1.580862    59A      1.602900  
      60A      1.608832    61A      1.614414    62A      1.663775  
      63A      1.708316    64A      1.734816    65A      1.761291  
      66A      1.792572    67A      1.838121    68A      1.879330  
      69A      1.938419    70A      1.966021    71A      1.994391  
      72A      2.006720    73A      2.039067    74A      2.140008  
      75A      2.161991    76A      2.200393    77A      2.313641  
      78A      2.368746    79A      2.394030    80A      2.455594  
      81A      2.494014    82A      2.537758    83A      2.611446  
      84A      2.680723    85A      2.825993    86A      2.965757  
      87A      3.018563    88A      3.060507    89A      3.122539  
      90A      3.197431    91A      3.703746  

    Final Occupation by Irrep:
              A 
    DOCC [    17 ]

  Energy converged.

  @DF-RKS Final Energy:  -210.38487067342066

   => Energetics <=

    Nuclear Repulsion Energy =            134.0784382133896315
    One-Electron Energy =                -551.2025112570544252
    Two-Electron Energy =                 230.2341383917834889
    DFT Exchange-Correlation Energy =     -23.4900031715393638
    Empirical Dispersion Energy =          -0.0049328500000000
    PCM Polarization Energy =               0.0000000000000000
    EFP Energy =                            0.0000000000000000
    Total Energy =                       -210.3848706734206644



Properties will be evaluated at   0.000000,   0.000000,   0.000000 Bohr

Properties computed using the SCF density matrix

  Nuclear Dipole Moment: (a.u.)
     X:   137.0615      Y:   -40.7224      Z:   -45.2319

  Electronic Dipole Moment: (a.u.)
     X:  -136.6945      Y:    40.6763      Z:    45.8003

  Dipole Moment: (a.u.)
     X:     0.3671      Y:    -0.0461      Z:     0.5684     Total:     0.6782

  Dipole Moment: (Debye)
     X:     0.9330      Y:    -0.1172      Z:     1.4448     Total:     1.7239


*** tstop() called on computer06 at Tue Dec 12 11:17:54 2017
Module time:
	user time   =      23.59 seconds =       0.39 minutes
	system time =       0.17 seconds =       0.00 minutes
	total time  =         27 seconds =       0.45 minutes
Total time:
	user time   =      23.59 seconds =       0.39 minutes
	system time =       0.17 seconds =       0.00 minutes
	total time  =         27 seconds =       0.45 minutes


Properties will be evaluated at   0.000000,   0.000000,   0.000000 Bohr

Properties computed using the  density matrix

  Nuclear Dipole Moment: (a.u.)
     X:   137.0615      Y:   -40.7224      Z:   -45.2319

  Electronic Dipole Moment: (a.u.)
     X:  -136.6945      Y:    40.6763      Z:    45.8003

  Dipole Moment: (a.u.)
     X:     0.3671      Y:    -0.0461      Z:     0.5684     Total:     0.6782

  Dipole Moment: (Debye)
     X:     0.9330      Y:    -0.1172      Z:     1.4448     Total:     1.7239

  Quadrupole Moment: (Debye Ang)
    XX:   -21.2090     YY:   -21.0105     ZZ:   -27.0007
    XY:    -1.4647     XZ:     0.1534     YZ:     2.9279

  Traceless Quadrupole Moment: (Debye Ang)
    XX:     1.8644     YY:     2.0629     ZZ:    -3.9273
    XY:    -1.4647     XZ:     0.1534     YZ:     2.9279

  Mulliken Charges: (a.u.)
   Center  Symbol    Alpha    Beta     Spin     Total
       1     O     4.13682  4.13682  0.00000 -0.27363
       2     C     2.92521  2.92521  0.00000  0.14959
       3     C     2.98773  2.98773  0.00000  0.02453
       4     N     3.58506  3.58506  0.00000 -0.17012
       5     H     0.43084  0.43084  0.00000  0.13832
       6     H     0.50375  0.50375  0.00000 -0.00749
       7     H     0.50049  0.50049  0.00000 -0.00097
       8     H     0.50502  0.50502  0.00000 -0.01005
       9     H     0.49438  0.49438  0.00000  0.01123
      10     H     0.46250  0.46250  0.00000  0.07500
      11     H     0.46820  0.46820  0.00000  0.06360

   Total alpha = 17.00000, Total beta = 17.00000, Total charge = -0.00000


*** Psi4 exiting successfully. Buy a developer a beer!
