    -----------------------------------------------------------------------
          Psi4: An Open-Source Ab Initio Electronic Structure Package
                              Psi4 (no tag) Driver

                          Git: Rev {detached?}  

    J. M. Turney, A. C. Simmonett, R. M. Parrish, E. G. Hohenstein,
    F. A. Evangelista, J. T. Fermann, B. J. Mintz, L. A. Burns, J. J. Wilke,
    M. L. Abrams, N. J. Russ, M. L. Leininger, C. L. Janssen, E. T. Seidl,
    W. D. Allen, H. F. Schaefer, R. A. King, E. F. Valeev, C. D. Sherrill,
    and T. D. Crawford, WIREs Comput. Mol. Sci. 2, 556-565 (2012)
    (doi: 10.1002/wcms.93)

                         Additional Contributions by
    A. E. DePrince, M. Saitow, U. Bozkaya, A. Yu. Sokolov
    -----------------------------------------------------------------------


    Psi4 started on: Tue Jul  5 16:26:26 2016

    Process ID:  20249
    PSI4DATADIR: /export131/home/mjharvey/miniconda3/share
    Memory level set to 256.000 MB

  ==> Input File <==

--------------------------------------------------------------------------
set {
	reference rhf
	basis 6-31G*
}


set_num_threads( 1 )
memory 2 gb

molecule MOL {
0 1

H	 -2.602702	 0.676560	 0.353332
O	 -2.315789	 -0.143634	 -0.024262
C	 -0.945151	 -0.064130	 -0.333158
H	 -0.813375	 -0.223047	 -1.403232
C	 -0.232801	 -1.184051	 0.407206
C	 -0.355424	 1.302939	 0.054523
H	 -0.318824	 -0.992899	 1.473524
H	 -0.742411	 -2.122033	 0.217954
C	 1.248522	 -1.270719	 -0.013048
H	 -0.546144	 2.018388	 -0.742941
H	 -0.890929	 1.656788	 0.930149
C	 1.156425	 1.235120	 0.355905
H	 1.825384	 -1.683246	 0.809111
H	 1.357782	 -1.965923	 -0.840362
C	 1.828244	 0.099899	 -0.419275
H	 1.626109	 2.185622	 0.123525
H	 1.309438	 1.071213	 1.419539
H	 2.901447	 0.112642	 -0.255830
H	 1.681817	 0.263413	 -1.484607

	symmetry c1
}
ee = energy('scf')
oeprop('DIPOLE', 'QUADRUPOLE', 'MULLIKEN_CHARGES')
f=open( 'psi4out.xyz', 'w' )
f.write( "19  " )
f.write( str(ee) + "\n" )
f.write( MOL.save_string_xyz() )
f.close()
--------------------------------------------------------------------------

  Memory set to   2.000 GiB by Python script.

*** tstart() called on cx1-3-15-2.cx1.hpc.ic.ac.uk
*** at Tue Jul  5 16:26:26 2016


         ---------------------------------------------------------
                                   SCF
            by Justin Turney, Rob Parrish, and Andy Simmonett
                              RHF Reference
                        1 Threads,   2000 MiB Core
         ---------------------------------------------------------

  ==> Geometry <==

    Molecular point group: c1
    Full point group: C1

    Geometry (in Angstrom), charge = 0, multiplicity = 1:

       Center              X                  Y                   Z               Mass       
    ------------   -----------------  -----------------  -----------------  -----------------
           H         -2.604520262400     0.675195554524     0.344913220455     1.007825032070
           O         -2.317607262400    -0.144998445476    -0.032680779545    15.994914619560
           C         -0.946969262400    -0.065494445476    -0.341576779545    12.000000000000
           H         -0.815193262400    -0.224411445476    -1.411650779545     1.007825032070
           C         -0.234619262400    -1.185415445476     0.398787220455    12.000000000000
           C         -0.357242262400     1.301574554524     0.046104220455    12.000000000000
           H         -0.320642262400    -0.994263445476     1.465105220455     1.007825032070
           H         -0.744229262400    -2.123397445476     0.209535220455     1.007825032070
           C          1.246703737600    -1.272083445476    -0.021466779545    12.000000000000
           H         -0.547962262400     2.017023554524    -0.751359779545     1.007825032070
           H         -0.892747262400     1.655423554524     0.921730220455     1.007825032070
           C          1.154606737600     1.233755554524     0.347486220455    12.000000000000
           H          1.823565737600    -1.684610445476     0.800692220455     1.007825032070
           H          1.355963737600    -1.967287445476    -0.848780779545     1.007825032070
           C          1.826425737600     0.098534554524    -0.427693779545    12.000000000000
           H          1.624290737600     2.184257554524     0.115106220455     1.007825032070
           H          1.307619737600     1.069848554524     1.411120220455     1.007825032070
           H          2.899628737600     0.111277554524    -0.264248779545     1.007825032070
           H          1.679998737600     0.262048554524    -1.493025779545     1.007825032070

  Running in c1 symmetry.

  Rotational constants: A =      0.14108  B =      0.07586  C =      0.05529 [cm^-1]
  Rotational constants: A =   4229.34155  B =   2274.23042  C =   1657.68412 [MHz]
  Nuclear repulsion =  331.758005440674538

  Charge       = 0
  Multiplicity = 1
  Electrons    = 56
  Nalpha       = 28
  Nbeta        = 28

  ==> Algorithm <==

  SCF Algorithm Type is DF.
  DIIS enabled.
  MOM disabled.
  Fractional occupation disabled.
  Guess Type is CORE.
  Energy threshold   = 1.00e-06
  Density threshold  = 1.00e-06
  Integral threshold = 0.00e+00

  ==> Primary Basis <==

  Basis Set: 6-31G*
    Number of shells: 66
    Number of basis function: 129
    Number of Cartesian functions: 129
    Spherical Harmonics?: false
    Max angular momentum: 2

  ==> Pre-Iterations <==

   -------------------------------------------------------
    Irrep   Nso     Nmo     Nalpha   Nbeta   Ndocc  Nsocc
   -------------------------------------------------------
     A        129     129       0       0       0       0
   -------------------------------------------------------
    Total     129     129      28      28      28       0
   -------------------------------------------------------

 OEINTS: Overlap, kinetic, potential, dipole, and quadrupole integrals
         stored in file 35.

  ==> Integral Setup <==

  ==> DFJK: Density-Fitted J/K Matrices <==

    J tasked:                  Yes
    K tasked:                  Yes
    wK tasked:                  No
    OpenMP threads:              1
    Integrals threads:           1
    Memory (MB):              1430
    Algorithm:                Core
    Integral Cache:           NONE
    Schwarz Cutoff:          1E-12
    Fitting Condition:       1E-12

   => Auxiliary Basis Set <=

  Basis Set: 
    Number of shells: 276
    Number of basis function: 867
    Number of Cartesian functions: 867
    Spherical Harmonics?: false
    Max angular momentum: 3

  Minimum eigenvalue in the overlap matrix is 2.0929665884E-03.
  Using Symmetric Orthogonalization.
  SCF Guess: Core (One-Electron) Hamiltonian.

  ==> Iterations <==

                           Total Energy        Delta E     RMS |[F,P]|

   @DF-RHF iter   1:  -247.64987759626877   -2.47650e+02   6.64114e-02 
   @DF-RHF iter   2:  -206.20752165820409    4.14424e+01   5.54919e-02 DIIS
   @DF-RHF iter   3:  -229.70354227455766   -2.34960e+01   6.44686e-02 DIIS
   @DF-RHF iter   4:  -303.70118649236724   -7.39976e+01   1.86263e-02 DIIS
   @DF-RHF iter   5:  -308.43040391859756   -4.72922e+00   8.68231e-03 DIIS
   @DF-RHF iter   6:  -309.01683029287904   -5.86426e-01   1.70938e-03 DIIS
   @DF-RHF iter   7:  -309.03901693626187   -2.21866e-02   7.71230e-04 DIIS
   @DF-RHF iter   8:  -309.04443524929661   -5.41831e-03   3.21188e-04 DIIS
   @DF-RHF iter   9:  -309.04546768066257   -1.03243e-03   1.02309e-04 DIIS
   @DF-RHF iter  10:  -309.04556117540301   -9.34947e-05   3.38294e-05 DIIS
   @DF-RHF iter  11:  -309.04557743449686   -1.62591e-05   6.21004e-06 DIIS
   @DF-RHF iter  12:  -309.04557816854867   -7.34052e-07   1.72554e-06 DIIS
   @DF-RHF iter  13:  -309.04557822291270   -5.43640e-08   3.67194e-07 DIIS

  ==> Post-Iterations <==

    Orbital Energies (a.u.)
    -----------------------

    Doubly Occupied:                                                      

       1A    -20.547745     2A    -11.268785     3A    -11.223180  
       4A    -11.221611     5A    -11.217856     6A    -11.214798  
       7A    -11.206171     8A     -1.358495     9A     -1.110340  
      10A     -1.005188    11A     -0.988840    12A     -0.847726  
      13A     -0.839725    14A     -0.744168    15A     -0.674617  
      16A     -0.669520    17A     -0.620773    18A     -0.604186  
      19A     -0.582070    20A     -0.551777    21A     -0.527542  
      22A     -0.521439    23A     -0.502811    24A     -0.485592  
      25A     -0.469363    26A     -0.450446    27A     -0.427969  
      28A     -0.409662  

    Virtual:                                                              

      29A      0.216151    30A      0.237403    31A      0.248367  
      32A      0.279767    33A      0.292607    34A      0.303020  
      35A      0.304959    36A      0.321523    37A      0.335777  
      38A      0.352133    39A      0.360193    40A      0.378184  
      41A      0.388908    42A      0.400746    43A      0.426773  
      44A      0.465003    45A      0.487729    46A      0.498635  
      47A      0.528378    48A      0.720421    49A      0.727931  
      50A      0.767081    51A      0.778328    52A      0.797599  
      53A      0.809399    54A      0.825290    55A      0.881396  
      56A      0.923292    57A      0.930032    58A      0.954766  
      59A      0.975290    60A      0.982629    61A      1.023009  
      62A      1.029683    63A      1.043308    64A      1.114696  
      65A      1.133545    66A      1.134563    67A      1.145134  
      68A      1.162885    69A      1.172913    70A      1.175395  
      71A      1.184441    72A      1.203690    73A      1.216851  
      74A      1.231492    75A      1.243767    76A      1.261448  
      77A      1.299689    78A      1.337150    79A      1.401488  
      80A      1.410658    81A      1.507632    82A      1.562097  
      83A      1.603617    84A      1.629272    85A      1.681832  
      86A      1.750631    87A      1.855038    88A      1.895838  
      89A      1.941796    90A      2.007546    91A      2.044614  
      92A      2.064487    93A      2.110797    94A      2.147176  
      95A      2.167602    96A      2.188746    97A      2.222090  
      98A      2.269555    99A      2.298430   100A      2.328575  
     101A      2.359828   102A      2.414076   103A      2.424488  
     104A      2.462002   105A      2.490299   106A      2.543125  
     107A      2.594321   108A      2.628482   109A      2.645646  
     110A      2.723049   111A      2.769458   112A      2.785222  
     113A      2.822263   114A      2.843554   115A      2.893960  
     116A      2.919770   117A      3.013884   118A      3.025953  
     119A      3.066462   120A      3.095659   121A      3.211071  
     122A      3.313584   123A      4.285854   124A      4.586982  
     125A      4.701951   126A      4.748057   127A      4.884357  
     128A      4.972775   129A      5.147845  

    Final Occupation by Irrep:
              A 
    DOCC [    28 ]

  Energy converged.

  @DF-RHF Final Energy:  -309.04557822291270

   => Energetics <=

    Nuclear Repulsion Energy =            331.7580054406745376
    One-Electron Energy =               -1077.0221896323444071
    Two-Electron Energy =                 436.2186059687568331
    DFT Exchange-Correlation Energy =       0.0000000000000000
    Empirical Dispersion Energy =           0.0000000000000000
    PCM Polarization Energy =               0.0000000000000000
    EFP Energy =                            0.0000000000000000
    Total Energy =                       -309.0455782229130364

    Alert: EFP and PCM quantities not currently incorporated into SCF psivars.

Properties will be evaluated at   0.000000,   0.000000,   0.000000 Bohr
  ==> Properties <==


Properties computed using the SCF density matrix

  Nuclear Dipole Moment: (a.u.)
     X:     4.4566      Y:     0.9191      Z:     0.4678

  Electronic Dipole Moment: (a.u.)
     X:    -3.9754      Y:    -0.3405      Z:    -0.3325

  Dipole Moment: (a.u.)
     X:     0.4812      Y:     0.5786      Z:     0.1353     Total:     0.7646

  Dipole Moment: (Debye)
     X:     1.2231      Y:     1.4706      Z:     0.3439     Total:     1.9434


  Saving occupied orbitals to File 180.

*** tstop() called on cx1-3-15-2.cx1.hpc.ic.ac.uk at Tue Jul  5 16:26:37 2016
Module time:
	user time   =      10.32 seconds =       0.17 minutes
	system time =       0.07 seconds =       0.00 minutes
	total time  =         11 seconds =       0.18 minutes
Total time:
	user time   =      10.32 seconds =       0.17 minutes
	system time =       0.07 seconds =       0.00 minutes
	total time  =         11 seconds =       0.18 minutes


Properties will be evaluated at   0.000000,   0.000000,   0.000000 Bohr

Properties computed using the  density matrix

  Nuclear Dipole Moment: (a.u.)
     X:     4.4566      Y:     0.9191      Z:     0.4678

  Electronic Dipole Moment: (a.u.)
     X:    -3.9754      Y:    -0.3405      Z:    -0.3325

  Dipole Moment: (a.u.)
     X:     0.4812      Y:     0.5786      Z:     0.1353     Total:     0.7646

  Dipole Moment: (Debye)
     X:     1.2231      Y:     1.4706      Z:     0.3439     Total:     1.9434

  Quadrupole Moment: (Debye Ang)
    XX:   -48.5385     YY:   -44.1247     ZZ:   -44.4420
    XY:    -4.0430     XZ:    -1.4027     YZ:     0.5779

  Traceless Quadrupole Moment: (Debye Ang)
    XX:    -2.8368     YY:     1.5770     ZZ:     1.2598
    XY:    -4.0430     XZ:    -1.4027     YZ:     0.5779

  Mulliken Charges: (a.u.)
   Center  Symbol    Alpha    Beta     Spin     Total
       1     H     0.27994  0.27994  0.00000  0.44012
       2     O     4.38440  4.38440  0.00000 -0.76881
       3     C     2.89678  2.89678  0.00000  0.20644
       4     H     0.42338  0.42338  0.00000  0.15323
       5     C     3.16517  3.16517  0.00000 -0.33035
       6     C     3.18458  3.18458  0.00000 -0.36916
       7     H     0.42229  0.42229  0.00000  0.15543
       8     H     0.40894  0.40894  0.00000  0.18212
       9     C     3.16220  3.16220  0.00000 -0.32440
      10     H     0.41443  0.41443  0.00000  0.17113
      11     H     0.42431  0.42431  0.00000  0.15138
      12     C     3.16204  3.16204  0.00000 -0.32407
      13     H     0.41843  0.41843  0.00000  0.16314
      14     H     0.41803  0.41803  0.00000  0.16393
      15     C     3.16448  3.16448  0.00000 -0.32896
      16     H     0.41564  0.41564  0.00000  0.16873
      17     H     0.41837  0.41837  0.00000  0.16326
      18     H     0.41590  0.41590  0.00000  0.16820
      19     H     0.42069  0.42069  0.00000  0.15863

   Total alpha = 28.00000, Total beta = 28.00000, Total charge = -0.00000


*** PSI4 exiting successfully. Buy a developer a beer!
