    -----------------------------------------------------------------------
          Psi4: An Open-Source Ab Initio Electronic Structure Package
                              Psi4 (no tag) Driver

                          Git: Rev {detached?}  

    J. M. Turney, A. C. Simmonett, R. M. Parrish, E. G. Hohenstein,
    F. A. Evangelista, J. T. Fermann, B. J. Mintz, L. A. Burns, J. J. Wilke,
    M. L. Abrams, N. J. Russ, M. L. Leininger, C. L. Janssen, E. T. Seidl,
    W. D. Allen, H. F. Schaefer, R. A. King, E. F. Valeev, C. D. Sherrill,
    and T. D. Crawford, WIREs Comput. Mol. Sci. 2, 556-565 (2012)
    (doi: 10.1002/wcms.93)

                         Additional Contributions by
    A. E. DePrince, M. Saitow, U. Bozkaya, A. Yu. Sokolov
    -----------------------------------------------------------------------


    Psi4 started on: Tue Jul  5 16:33:05 2016

    Process ID:  17617
    PSI4DATADIR: /export131/home/mjharvey/miniconda3/share
    Memory level set to 256.000 MB

  ==> Input File <==

--------------------------------------------------------------------------
set {
	reference rhf
	basis 6-31G*
}


set_num_threads( 1 )
memory 2 gb

molecule MOL {
0 1

H	 1.165546	 1.641501	 0.752689
O	 0.428306	 1.057262	 0.900582
C	 0.489431	 0.077273	 0.000046
C	 -0.764129	 -0.759190	 0.000191
O	 1.436301	 -0.082777	 -0.698801
C	 -2.038368	 0.075731	 -0.000248
H	 -0.717284	 -1.412404	 -0.866059
H	 -0.717458	 -1.411724	 0.866967
H	 -2.086483	 0.712501	 -0.875098
H	 -2.908485	 -0.571682	 -0.000042
H	 -2.086576	 0.713280	 0.874068

	symmetry c1
}
set optking {
	frozen_dihedral = ("
		2 3 4 7
	")
}

ee = energy('scf')
oeprop('DIPOLE', 'QUADRUPOLE', 'MULLIKEN_CHARGES')
f=open( 'psi4out.xyz', 'w' )
f.write( "11  " )
f.write( str(ee) + "\n" )
f.write( MOL.save_string_xyz() )
f.close()
--------------------------------------------------------------------------

  Memory set to   2.000 GiB by Python script.

*** tstart() called on cx1-3-15-3.cx1.hpc.ic.ac.uk
*** at Tue Jul  5 16:33:06 2016


         ---------------------------------------------------------
                                   SCF
            by Justin Turney, Rob Parrish, and Andy Simmonett
                              RHF Reference
                        1 Threads,   2000 MiB Core
         ---------------------------------------------------------

  ==> Geometry <==

    Molecular point group: c1
    Full point group: C1

    Geometry (in Angstrom), charge = 0, multiplicity = 1:

       Center              X                  Y                   Z               Mass       
    ------------   -----------------  -----------------  -----------------  -----------------
           H          1.237683416744     1.533696828989     0.698854251518     1.007825032070
           O          0.500443416744     0.949457828989     0.846747251518    15.994914619560
           C          0.561568416744    -0.030531171011    -0.053788748482    12.000000000000
           C         -0.691991583256    -0.866994171011    -0.053643748482    12.000000000000
           O          1.508438416744    -0.190581171011    -0.752635748482    15.994914619560
           C         -1.966230583256    -0.032073171011    -0.054082748482    12.000000000000
           H         -0.645146583256    -1.520208171011    -0.919893748482     1.007825032070
           H         -0.645320583256    -1.519528171011     0.813132251518     1.007825032070
           H         -2.014345583256     0.604696828989    -0.928932748482     1.007825032070
           H         -2.836347583256    -0.679486171011    -0.053876748482     1.007825032070
           H         -2.014438583256     0.605475828989     0.820233251518     1.007825032070

  Running in c1 symmetry.

  Rotational constants: A =      0.31365  B =      0.13357  C =      0.10344 [cm^-1]
  Rotational constants: A =   9403.03035  B =   4004.34722  C =   3101.04748 [MHz]
  Nuclear repulsion =  180.507077192819594

  Charge       = 0
  Multiplicity = 1
  Electrons    = 40
  Nalpha       = 20
  Nbeta        = 20

  ==> Algorithm <==

  SCF Algorithm Type is DF.
  DIIS enabled.
  MOM disabled.
  Fractional occupation disabled.
  Guess Type is CORE.
  Energy threshold   = 1.00e-06
  Density threshold  = 1.00e-06
  Integral threshold = 0.00e+00

  ==> Primary Basis <==

  Basis Set: 6-31G*
    Number of shells: 42
    Number of basis function: 87
    Number of Cartesian functions: 87
    Spherical Harmonics?: false
    Max angular momentum: 2

  ==> Pre-Iterations <==

   -------------------------------------------------------
    Irrep   Nso     Nmo     Nalpha   Nbeta   Ndocc  Nsocc
   -------------------------------------------------------
     A         87      87       0       0       0       0
   -------------------------------------------------------
    Total      87      87      20      20      20       0
   -------------------------------------------------------

 OEINTS: Overlap, kinetic, potential, dipole, and quadrupole integrals
         stored in file 35.

  ==> Integral Setup <==

  ==> DFJK: Density-Fitted J/K Matrices <==

    J tasked:                  Yes
    K tasked:                  Yes
    wK tasked:                  No
    OpenMP threads:              1
    Integrals threads:           1
    Memory (MB):              1430
    Algorithm:                Core
    Integral Cache:           NONE
    Schwarz Cutoff:          1E-12
    Fitting Condition:       1E-12

   => Auxiliary Basis Set <=

  Basis Set: 
    Number of shells: 174
    Number of basis function: 555
    Number of Cartesian functions: 555
    Spherical Harmonics?: false
    Max angular momentum: 3

  Minimum eigenvalue in the overlap matrix is 3.6541728874E-03.
  Using Symmetric Orthogonalization.
  SCF Guess: Core (One-Electron) Hamiltonian.

  ==> Iterations <==

                           Total Energy        Delta E     RMS |[F,P]|

   @DF-RHF iter   1:  -217.50865018410590   -2.17509e+02   8.21925e-02 
   @DF-RHF iter   2:  -156.88652671021768    6.06221e+01   9.11452e-02 DIIS
   @DF-RHF iter   3:  -249.26375405126376   -9.23772e+01   4.20365e-02 DIIS
   @DF-RHF iter   4:  -239.93000750400475    9.33375e+00   6.15537e-02 DIIS
   @DF-RHF iter   5:  -266.51249184951098   -2.65825e+01   9.51575e-03 DIIS
   @DF-RHF iter   6:  -266.71301840764329   -2.00527e-01   6.67032e-03 DIIS
   @DF-RHF iter   7:  -266.83447413443423   -1.21456e-01   1.22715e-03 DIIS
   @DF-RHF iter   8:  -266.84151393337811   -7.03980e-03   5.53529e-04 DIIS
   @DF-RHF iter   9:  -266.84306611652789   -1.55218e-03   1.79008e-04 DIIS
   @DF-RHF iter  10:  -266.84320183878890   -1.35722e-04   6.73024e-05 DIIS
   @DF-RHF iter  11:  -266.84322796860783   -2.61298e-05   1.82908e-05 DIIS
   @DF-RHF iter  12:  -266.84322963076443   -1.66216e-06   5.60980e-06 DIIS
   @DF-RHF iter  13:  -266.84322983110280   -2.00338e-07   1.69562e-06 DIIS
   @DF-RHF iter  14:  -266.84322985667643   -2.55736e-08   4.83625e-07 DIIS

  ==> Post-Iterations <==

    Orbital Energies (a.u.)
    -----------------------

    Doubly Occupied:                                                      

       1A    -20.614088     2A    -20.551601     3A    -11.381596  
       4A    -11.243077     5A    -11.226731     6A     -1.475781  
       7A     -1.366314     8A     -1.068740     9A     -0.910419  
      10A     -0.820114    11A     -0.702353    12A     -0.683357  
      13A     -0.647833    14A     -0.609753    15A     -0.584482  
      16A     -0.551164    17A     -0.528000    18A     -0.508166  
      19A     -0.477398    20A     -0.440721  

    Virtual:                                                              

      21A      0.189710    22A      0.221715    23A      0.266122  
      24A      0.289291    25A      0.301836    26A      0.316760  
      27A      0.340673    28A      0.398560    29A      0.423683  
      30A      0.491354    31A      0.549403    32A      0.723147  
      33A      0.730303    34A      0.748097    35A      0.783475  
      36A      0.835601    37A      0.887823    38A      0.933148  
      39A      0.972597    40A      0.986339    41A      1.048160  
      42A      1.076236    43A      1.121854    44A      1.138549  
      45A      1.161876    46A      1.182420    47A      1.202060  
      48A      1.217276    49A      1.233320    50A      1.284640  
      51A      1.316197    52A      1.350949    53A      1.361661  
      54A      1.528736    55A      1.636072    56A      1.664390  
      57A      1.729422    58A      1.806561    59A      1.852047  
      60A      1.971092    61A      2.019131    62A      2.067356  
      63A      2.097462    64A      2.119247    65A      2.154012  
      66A      2.225501    67A      2.256377    68A      2.281330  
      69A      2.357810    70A      2.439147    71A      2.585246  
      72A      2.635791    73A      2.659279    74A      2.710319  
      75A      2.749452    76A      2.866770    77A      2.936606  
      78A      3.031326    79A      3.111469    80A      3.242436  
      81A      3.375201    82A      3.479332    83A      4.247117  
      84A      4.492470    85A      4.629609    86A      4.740457  
      87A      4.947464  

    Final Occupation by Irrep:
              A 
    DOCC [    20 ]

  Energy converged.

  @DF-RHF Final Energy:  -266.84322985667643

   => Energetics <=

    Nuclear Repulsion Energy =            180.5070771928195938
    One-Electron Energy =                -721.9172608396977466
    Two-Electron Energy =                 274.5669537902017510
    DFT Exchange-Correlation Energy =       0.0000000000000000
    Empirical Dispersion Energy =           0.0000000000000000
    PCM Polarization Energy =               0.0000000000000000
    EFP Energy =                            0.0000000000000000
    Total Energy =                       -266.8432298566764302

    Alert: EFP and PCM quantities not currently incorporated into SCF psivars.

Properties will be evaluated at   0.000000,   0.000000,   0.000000 Bohr
  ==> Properties <==


Properties computed using the SCF density matrix

  Nuclear Dipole Moment: (a.u.)
     X:    -6.4757      Y:    -0.9107      Z:     0.4031

  Electronic Dipole Moment: (a.u.)
     X:     5.8462      Y:     1.1260      Z:    -0.0271

  Dipole Moment: (a.u.)
     X:    -0.6295      Y:     0.2153      Z:     0.3760     Total:     0.7642

  Dipole Moment: (Debye)
     X:    -1.6000      Y:     0.5473      Z:     0.9558     Total:     1.9425


  Saving occupied orbitals to File 180.

*** tstop() called on cx1-3-15-3.cx1.hpc.ic.ac.uk at Tue Jul  5 16:33:09 2016
Module time:
	user time   =       3.31 seconds =       0.06 minutes
	system time =       0.03 seconds =       0.00 minutes
	total time  =          3 seconds =       0.05 minutes
Total time:
	user time   =       3.31 seconds =       0.06 minutes
	system time =       0.03 seconds =       0.00 minutes
	total time  =          3 seconds =       0.05 minutes


Properties will be evaluated at   0.000000,   0.000000,   0.000000 Bohr

Properties computed using the  density matrix

  Nuclear Dipole Moment: (a.u.)
     X:    -6.4757      Y:    -0.9107      Z:     0.4031

  Electronic Dipole Moment: (a.u.)
     X:     5.8462      Y:     1.1260      Z:    -0.0271

  Dipole Moment: (a.u.)
     X:    -0.6295      Y:     0.2153      Z:     0.3760     Total:     0.7642

  Dipole Moment: (Debye)
     X:    -1.6000      Y:     0.5473      Z:     0.9558     Total:     1.9425

  Quadrupole Moment: (Debye Ang)
    XX:   -31.9375     YY:   -26.9670     ZZ:   -32.1414
    XY:     3.7958     XZ:     3.6071     YZ:    -0.7355

  Traceless Quadrupole Moment: (Debye Ang)
    XX:    -1.5889     YY:     3.3817     ZZ:    -1.7928
    XY:     3.7958     XZ:     3.6071     YZ:    -0.7355

  Mulliken Charges: (a.u.)
   Center  Symbol    Alpha    Beta     Spin     Total
       1     H     0.26722  0.26722  0.00000  0.46556
       2     O     4.34707  4.34707  0.00000 -0.69415
       3     C     2.62828  2.62828  0.00000  0.74345
       4     C     3.20503  3.20503  0.00000 -0.41006
       5     O     4.27877  4.27877  0.00000 -0.55753
       6     C     3.24771  3.24771  0.00000 -0.49543
       7     H     0.39634  0.39634  0.00000  0.20733
       8     H     0.39930  0.39930  0.00000  0.20140
       9     H     0.41377  0.41377  0.00000  0.17245
      10     H     0.41292  0.41292  0.00000  0.17416
      11     H     0.40359  0.40359  0.00000  0.19282

   Total alpha = 20.00000, Total beta = 20.00000, Total charge = -0.00000


*** PSI4 exiting successfully. Buy a developer a beer!
