
    -----------------------------------------------------------------------
          Psi4: An Open-Source Ab Initio Electronic Structure Package
                               Psi4 1.1 release

                         Git: Rev {HEAD} add49b9 


    R. M. Parrish, L. A. Burns, D. G. A. Smith, A. C. Simmonett,
    A. E. DePrince III, E. G. Hohenstein, U. Bozkaya, A. Yu. Sokolov,
    R. Di Remigio, R. M. Richard, J. F. Gonthier, A. M. James,
    H. R. McAlexander, A. Kumar, M. Saitow, X. Wang, B. P. Pritchard,
    P. Verma, H. F. Schaefer III, K. Patkowski, R. A. King, E. F. Valeev,
    F. A. Evangelista, J. M. Turney, T. D. Crawford, and C. D. Sherrill,
    J. Chem. Theory Comput. in press (2017).
    (doi: 10.1021/acs.jctc.7b00174)

    -----------------------------------------------------------------------


    Psi4 started on: Wednesday, 06 September 2017 01:02PM

    Process ID:    533
    PSIDATADIR: /home/raimis/opt/miniconda3/envs/htmd/share/psi4
    Memory:     500.0 MiB
    Threads:    1
    
  ==> Input File <==

--------------------------------------------------------------------------
set_num_threads( 8 )
memory 2.000000 gb

set { reference rks }
set { basis cc-pVDZ }

molecule MOL {
    0 1
    noreorient
    nocom
    symmetry c1
    O    1.141000   0.017000   0.083000
    C    2.558000   0.086000  -0.005000
    C    3.192000  -0.789000   1.067000
    O    4.610000  -0.719000   0.979000
    H    0.789000   0.590000  -0.620000
    H    2.874000   1.128000   0.115000
    H    2.871000  -0.243000  -1.001000
    H    2.876000  -1.830000   0.947000
    H    2.879000  -0.459000   2.064000
    H    4.888208   0.017203   1.551268
}

set optking { frozen_dihedral = (" 1 2 3 4, 2 3 4 10 ") }

energy, wfn = energy('B3LYP-D3', return_wfn=True)

import os
os.chdir(os.environ['HTMD_PSI4_WORKDIR'])

oeprop(wfn, 'DIPOLE', 'QUADRUPOLE', 'MULLIKEN_CHARGES')

with open('psi4out.xyz', 'w') as f:
    f.write('10 ' )
    f.write('%.12f\n' % energy)
    f.write(MOL.save_string_xyz())
--------------------------------------------------------------------------
  Threads set to 8 by Python driver.

  Memory set to   1.863 GiB by Python driver.

*** tstart() called on computer03
*** at Wed Sep  6 13:02:03 2017

   => Loading Basis Set <=

    Name: CC-PVDZ
    Role: ORBITAL
    Keyword: BASIS
    atoms 1, 4 entry O          line   190 file /home/raimis/opt/miniconda3/envs/htmd/share/psi4/basis/cc-pvdz.gbs 
    atoms 2-3  entry C          line   130 file /home/raimis/opt/miniconda3/envs/htmd/share/psi4/basis/cc-pvdz.gbs 
    atoms 5-10 entry H          line    20 file /home/raimis/opt/miniconda3/envs/htmd/share/psi4/basis/cc-pvdz.gbs 


         ---------------------------------------------------------
                                   SCF
            by Justin Turney, Rob Parrish, and Andy Simmonett
                              RKS Reference
                        8 Threads,   1907 MiB Core
         ---------------------------------------------------------

  ==> Geometry <==

    Molecular point group: c1
    Full point group: C1

    Geometry (in Angstrom), charge = 0, multiplicity = 1:

       Center              X                  Y                   Z               Mass       
    ------------   -----------------  -----------------  -----------------  -----------------
           O          1.141000000000     0.017000000000     0.083000000000    15.994914619560
           C          2.558000000000     0.086000000000    -0.005000000000    12.000000000000
           C          3.192000000000    -0.789000000000     1.067000000000    12.000000000000
           O          4.610000000000    -0.719000000000     0.979000000000    15.994914619560
           H          0.789000000000     0.590000000000    -0.620000000000     1.007825032070
           H          2.874000000000     1.128000000000     0.115000000000     1.007825032070
           H          2.871000000000    -0.243000000000    -1.001000000000     1.007825032070
           H          2.876000000000    -1.830000000000     0.947000000000     1.007825032070
           H          2.879000000000    -0.459000000000     2.064000000000     1.007825032070
           H          4.888208000000     0.017203000000     1.551268000000     1.007825032070

  Running in c1 symmetry.

  Rotational constants: A =      0.82015  B =      0.02546  C =      0.02498 [cm^-1]
  Rotational constants: A =  24587.35635  B =    763.14058  C =    748.88883 [MHz]
  Nuclear repulsion =  129.714798734707216

  Charge       = 0
  Multiplicity = 1
  Electrons    = 34
  Nalpha       = 17
  Nbeta        = 17

  ==> Algorithm <==

  SCF Algorithm Type is DF.
  DIIS enabled.
  MOM disabled.
  Fractional occupation disabled.
  Guess Type is SAD.
  Energy threshold   = 1.00e-06
  Density threshold  = 1.00e-06
  Integral threshold = 0.00e+00

  ==> Primary Basis <==

  Basis Set: CC-PVDZ
    Blend: CC-PVDZ
    Number of shells: 42
    Number of basis function: 86
    Number of Cartesian functions: 90
    Spherical Harmonics?: true
    Max angular momentum: 2

  ==> DFT Potential <==

   => B3LYP Composite Functional <= 

    B3LYP Hybrid-GGA Exchange-Correlation Functional (VWN1-RPA)

    P.J. Stephens et. al., J. Phys. Chem., 98, 11623-11627, 1994

    Points   =           5000
    Deriv    =              1
    GGA      =           TRUE
    Meta     =          FALSE

    X_LRC        =          FALSE
    X_Hybrid     =           TRUE
    X_Alpha      =   2.000000E-01
    X_Omega      =   0.000000E+00
    C_LRC        =          FALSE
    C_Hybrid     =          FALSE
    C_Alpha      =   0.000000E+00
    C_Omega      =   0.000000E+00

   => Exchange Functionals <=

    0.8000    B3_X
    0.2000      HF 

   => Correlation Functionals <=

    0.1900 VWN3RPA_C
    0.8100   LYP_C

   => Molecular Quadrature <=

    Radial Scheme    =       TREUTLER
    Pruning Scheme   =           FLAT
    Nuclear Scheme   =       TREUTLER

    BS radius alpha  =              1
    Pruning alpha    =              1
    Radial Points    =             75
    Spherical Points =            302
    Total Points     =         222546
    Total Blocks     =            209
    Max Points       =           4708
    Max Functions    =             86

   => -D3ZERO: Empirical Dispersion <=

    Grimme's -D3 (zero-damping) Dispersion Correction
    Grimme S.; Antony J.; Ehrlich S.; Krieg H. (2010), J. Chem. Phys., 132: 154104

        S6 =   1.000000E+00
        S8 =   1.703000E+00
       SR6 =   1.261000E+00
    ALPHA6 =   1.400000E+01

   => Loading Basis Set <=

    Name: (CC-PVDZ AUX)
    Role: JKFIT
    Keyword: DF_BASIS_SCF
    atoms 1, 4 entry O          line   220 file /home/raimis/opt/miniconda3/envs/htmd/share/psi4/basis/cc-pvdz-jkfit.gbs 
    atoms 2-3  entry C          line   120 file /home/raimis/opt/miniconda3/envs/htmd/share/psi4/basis/cc-pvdz-jkfit.gbs 
    atoms 5-10 entry H          line    50 file /home/raimis/opt/miniconda3/envs/htmd/share/psi4/basis/cc-pvdz-jkfit.gbs 

  ==> Pre-Iterations <==

   -------------------------------------------------------
    Irrep   Nso     Nmo     Nalpha   Nbeta   Ndocc  Nsocc
   -------------------------------------------------------
     A         86      86       0       0       0       0
   -------------------------------------------------------
    Total      86      86      17      17      17       0
   -------------------------------------------------------

  ==> Integral Setup <==

  ==> DFJK: Density-Fitted J/K Matrices <==

    J tasked:                  Yes
    K tasked:                  Yes
    wK tasked:                  No
    OpenMP threads:              8
    Integrals threads:           8
    Memory (MB):              1430
    Algorithm:                Core
    Integral Cache:           NONE
    Schwarz Cutoff:          1E-12
    Fitting Condition:       1E-12

   => Auxiliary Basis Set <=

  Basis Set: (CC-PVDZ AUX)
    Blend: CC-PVDZ-JKFIT
    Number of shells: 150
    Number of basis function: 418
    Number of Cartesian functions: 474
    Spherical Harmonics?: true
    Max angular momentum: 3

  Minimum eigenvalue in the overlap matrix is 5.0785689065E-03.
  Using Symmetric Orthogonalization.

  SCF Guess: Superposition of Atomic Densities via on-the-fly atomic UHF.

  ==> Iterations <==

                           Total Energy        Delta E     RMS |[F,P]|

   @DF-RKS iter   0:  -230.76120067875277   -2.30761e+02   6.29907e-02 
   @DF-RKS iter   1:  -230.16067004934970    6.00531e-01   6.66565e-03 
   @DF-RKS iter   2:  -230.13567462965423    2.49954e-02   1.18501e-02 DIIS
   @DF-RKS iter   3:  -230.25706342676324   -1.21389e-01   9.74743e-04 DIIS
   @DF-RKS iter   4:  -230.25788696102367   -8.23534e-04   5.36783e-04 DIIS
   @DF-RKS iter   5:  -230.25817488637998   -2.87925e-04   6.41153e-05 DIIS
   @DF-RKS iter   6:  -230.25818145671769   -6.57034e-06   6.38749e-06 DIIS
   @DF-RKS iter   7:  -230.25818148359807   -2.68804e-08   4.54828e-06 DIIS
   @DF-RKS iter   8:  -230.25818150771860   -2.41205e-08   6.92646e-07 DIIS

  ==> Post-Iterations <==

    Orbital Energies (a.u.)
    -----------------------

    Doubly Occupied:                                                      

       1A    -19.134966     2A    -19.131390     3A    -10.227224  
       4A    -10.224687     5A     -1.020756     6A     -1.009599  
       7A     -0.730869     8A     -0.611408     9A     -0.522770  
      10A     -0.494464    11A     -0.451745    12A     -0.428067  
      13A     -0.397207    14A     -0.338347    15A     -0.326004  
      16A     -0.270042    17A     -0.264635  

    Virtual:                                                              

      18A      0.043685    19A      0.050938    20A      0.106093  
      21A      0.118365    22A      0.126762    23A      0.163747  
      24A      0.186475    25A      0.244754    26A      0.251795  
      27A      0.435416    28A      0.441576    29A      0.503220  
      30A      0.518687    31A      0.552758    32A      0.585630  
      33A      0.604066    34A      0.623281    35A      0.637460  
      36A      0.648478    37A      0.664770    38A      0.682808  
      39A      0.882456    40A      0.904608    41A      0.909787  
      42A      0.971937    43A      1.014992    44A      1.058351  
      45A      1.064370    46A      1.082039    47A      1.202056  
      48A      1.217888    49A      1.302977    50A      1.332558  
      51A      1.344933    52A      1.396209    53A      1.443679  
      54A      1.516110    55A      1.599320    56A      1.600714  
      57A      1.644644    58A      1.651022    59A      1.665269  
      60A      1.706643    61A      1.726940    62A      1.766745  
      63A      1.834196    64A      1.853748    65A      1.916768  
      66A      1.978735    67A      2.034280    68A      2.076375  
      69A      2.098047    70A      2.166513    71A      2.244768  
      72A      2.289838    73A      2.404578    74A      2.424897  
      75A      2.471822    76A      2.519367    77A      2.910815  
      78A      2.944576    79A      2.969347    80A      3.029485  
      81A      3.065827    82A      3.140653    83A      3.191129  
      84A      3.235634    85A      3.666722    86A      3.689115  

    Final Occupation by Irrep:
              A 
    DOCC [    17 ]

  Energy converged.

  @DF-RKS Final Energy:  -230.25818150771860

   => Energetics <=

    Nuclear Repulsion Energy =            129.7147987347072160
    One-Electron Energy =                -571.1447496205828429
    Two-Electron Energy =                 235.7149262495458686
    DFT Exchange-Correlation Energy =     -24.5385867113888381
    Empirical Dispersion Energy =          -0.0045701600000000
    PCM Polarization Energy =               0.0000000000000000
    EFP Energy =                            0.0000000000000000
    Total Energy =                       -230.2581815077186036



Properties will be evaluated at   0.000000,   0.000000,   0.000000 Bohr

Properties computed using the SCF density matrix

  Nuclear Dipole Moment: (a.u.)
     X:   184.5983      Y:   -20.0893      Z:    33.8720

  Electronic Dipole Moment: (a.u.)
     X:  -184.6395      Y:    20.8136      Z:   -33.9237

  Dipole Moment: (a.u.)
     X:    -0.0412      Y:     0.7243      Z:    -0.0517     Total:     0.7273

  Dipole Moment: (Debye)
     X:    -0.1048      Y:     1.8409      Z:    -0.1315     Total:     1.8486


*** tstop() called on computer03 at Wed Sep  6 13:02:20 2017
Module time:
	user time   =      31.28 seconds =       0.52 minutes
	system time =       0.82 seconds =       0.01 minutes
	total time  =         17 seconds =       0.28 minutes
Total time:
	user time   =      31.28 seconds =       0.52 minutes
	system time =       0.82 seconds =       0.01 minutes
	total time  =         17 seconds =       0.28 minutes


Properties will be evaluated at   0.000000,   0.000000,   0.000000 Bohr

Properties computed using the  density matrix

  Nuclear Dipole Moment: (a.u.)
     X:   184.5983      Y:   -20.0893      Z:    33.8720

  Electronic Dipole Moment: (a.u.)
     X:  -184.6395      Y:    20.8136      Z:   -33.9237

  Dipole Moment: (a.u.)
     X:    -0.0412      Y:     0.7243      Z:    -0.0517     Total:     0.7273

  Dipole Moment: (Debye)
     X:    -0.1048      Y:     1.8409      Z:    -0.1315     Total:     1.8486

  Quadrupole Moment: (Debye Ang)
    XX:   -27.6817     YY:   -24.6040     ZZ:   -21.5905
    XY:     6.3001     XZ:     3.5948     YZ:     0.4777

  Traceless Quadrupole Moment: (Debye Ang)
    XX:    -3.0563     YY:     0.0214     ZZ:     3.0349
    XY:     6.3001     XZ:     3.5948     YZ:     0.4777

  Mulliken Charges: (a.u.)
   Center  Symbol    Alpha    Beta     Spin     Total
       1     O     4.14073  4.14073  0.00000 -0.28147
       2     C     2.93832  2.93832  0.00000  0.12336
       3     C     2.93399  2.93399  0.00000  0.13202
       4     O     4.13960  4.13960  0.00000 -0.27921
       5     H     0.42819  0.42819  0.00000  0.14362
       6     H     0.50747  0.50747  0.00000 -0.01494
       7     H     0.49809  0.49809  0.00000  0.00382
       8     H     0.48735  0.48735  0.00000  0.02531
       9     H     0.49704  0.49704  0.00000  0.00592
      10     H     0.42922  0.42922  0.00000  0.14157

   Total alpha = 17.00000, Total beta = 17.00000, Total charge = -0.00000


*** Psi4 exiting successfully. Buy a developer a beer!
