    -----------------------------------------------------------------------
          Psi4: An Open-Source Ab Initio Electronic Structure Package
                              Psi4 (no tag) Driver

                          Git: Rev {detached?}  

    J. M. Turney, A. C. Simmonett, R. M. Parrish, E. G. Hohenstein,
    F. A. Evangelista, J. T. Fermann, B. J. Mintz, L. A. Burns, J. J. Wilke,
    M. L. Abrams, N. J. Russ, M. L. Leininger, C. L. Janssen, E. T. Seidl,
    W. D. Allen, H. F. Schaefer, R. A. King, E. F. Valeev, C. D. Sherrill,
    and T. D. Crawford, WIREs Comput. Mol. Sci. 2, 556-565 (2012)
    (doi: 10.1002/wcms.93)

                         Additional Contributions by
    A. E. DePrince, M. Saitow, U. Bozkaya, A. Yu. Sokolov
    -----------------------------------------------------------------------


    Psi4 started on: Tue Jul  5 16:53:43 2016

    Process ID:  31243
    PSI4DATADIR: /export131/home/mjharvey/miniconda3/share
    Memory level set to 256.000 MB

  ==> Input File <==

--------------------------------------------------------------------------
set {
	reference rhf
	basis 6-31G*
}


set_num_threads( 1 )
memory 2 gb

molecule MOL {
0 1

H	 -2.095764	 0.435638	 -2.350391
C	 -2.795213	 1.048318	 -1.768139
C	 -2.660244	 0.921717	 -0.272021
O	 -3.583432	 1.744001	 -2.321751
C	 -1.616356	 -0.126263	 0.138210
H	 -2.425163	 1.898690	 0.134144
H	 -3.635285	 0.625781	 0.113171
C	 -2.025759	 -1.561419	 -0.202404
H	 -0.679484	 0.109018	 -0.357974
H	 -1.421995	 -0.043644	 1.206458
C	 -0.971305	 -2.593775	 0.201557
H	 -2.213825	 -1.633602	 -1.271641
H	 -2.968366	 -1.802005	 0.285601
C	 -1.376887	 -4.026350	 -0.155068
H	 -0.029855	 -2.342526	 -0.280397
H	 -0.793956	 -2.527206	 1.274170
C	 -0.388383	 -5.104113	 0.304667
H	 -1.516504	 -4.103578	 -1.232210
H	 -2.346785	 -4.234736	 0.291683
C	 0.974981	 -5.052789	 -0.386870
H	 -0.834378	 -6.078707	 0.122445
H	 -0.250638	 -5.030789	 1.381501
H	 0.866958	 -5.107839	 -1.466948
H	 1.514675	 -4.140848	 -0.154348
H	 1.596548	 -5.886606	 -0.074780

	symmetry c1
}
set optking {
	frozen_dihedral = ("
		6 3 5 8,
		3 5 8 12,
		12 8 11 14,
		8 11 14 18,
		20 17 14 18
	")
}

ee = energy('scf')
oeprop('DIPOLE', 'QUADRUPOLE', 'MULLIKEN_CHARGES')
f=open( 'psi4out.xyz', 'w' )
f.write( "25  " )
f.write( str(ee) + "\n" )
f.write( MOL.save_string_xyz() )
f.close()
--------------------------------------------------------------------------

  Memory set to   2.000 GiB by Python script.

*** tstart() called on cx1-3-1-3.cx1.hpc.ic.ac.uk
*** at Tue Jul  5 16:53:44 2016


         ---------------------------------------------------------
                                   SCF
            by Justin Turney, Rob Parrish, and Andy Simmonett
                              RHF Reference
                        1 Threads,   2000 MiB Core
         ---------------------------------------------------------

  ==> Geometry <==

    Molecular point group: c1
    Full point group: C1

    Geometry (in Angstrom), charge = 0, multiplicity = 1:

       Center              X                  Y                   Z               Mass       
    ------------   -----------------  -----------------  -----------------  -----------------
           H         -0.495739266621     2.076409463743    -1.841375216379     1.007825032070
           C         -1.195188266621     2.689089463743    -1.259123216379    12.000000000000
           C         -1.060219266621     2.562488463743     0.236994783621    12.000000000000
           O         -1.983407266621     3.384772463743    -1.812735216379    15.994914619560
           C         -0.016331266621     1.514508463743     0.647225783621    12.000000000000
           H         -0.825138266621     3.539461463743     0.643159783621     1.007825032070
           H         -2.035260266621     2.266552463743     0.622186783621     1.007825032070
           C         -0.425734266621     0.079352463743     0.306611783621    12.000000000000
           H          0.920540733379     1.749789463743     0.151041783621     1.007825032070
           H          0.178029733379     1.597127463743     1.715473783621     1.007825032070
           C          0.628719733379    -0.953003536257     0.710572783621    12.000000000000
           H         -0.613800266621     0.007169463743    -0.762625216379     1.007825032070
           H         -1.368341266621    -0.161233536257     0.794616783621     1.007825032070
           C          0.223137733379    -2.385578536257     0.353947783621    12.000000000000
           H          1.570169733379    -0.701754536257     0.228618783621     1.007825032070
           H          0.806068733379    -0.886434536257     1.783185783621     1.007825032070
           C          1.211641733379    -3.463341536257     0.813682783621    12.000000000000
           H          0.083520733379    -2.462806536257    -0.723194216379     1.007825032070
           H         -0.746760266621    -2.593964536257     0.800698783621     1.007825032070
           C          2.575005733379    -3.412017536257     0.122145783621    12.000000000000
           H          0.765646733379    -4.437935536257     0.631460783621     1.007825032070
           H          1.349386733379    -3.390017536257     1.890516783621     1.007825032070
           H          2.466982733379    -3.467067536257    -0.957932216379     1.007825032070
           H          3.114699733379    -2.500076536257     0.354667783621     1.007825032070
           H          3.196572733379    -4.245834536257     0.434235783621     1.007825032070

  Running in c1 symmetry.

  Rotational constants: A =      0.14788  B =      0.01490  C =      0.01459 [cm^-1]
  Rotational constants: A =   4433.25958  B =    446.67287  C =    437.45487 [MHz]
  Nuclear repulsion =  437.526731269439153

  Charge       = 0
  Multiplicity = 1
  Electrons    = 72
  Nalpha       = 36
  Nbeta        = 36

  ==> Algorithm <==

  SCF Algorithm Type is DF.
  DIIS enabled.
  MOM disabled.
  Fractional occupation disabled.
  Guess Type is CORE.
  Energy threshold   = 1.00e-06
  Density threshold  = 1.00e-06
  Integral threshold = 0.00e+00

  ==> Primary Basis <==

  Basis Set: 6-31G*
    Number of shells: 86
    Number of basis function: 167
    Number of Cartesian functions: 167
    Spherical Harmonics?: false
    Max angular momentum: 2

  ==> Pre-Iterations <==

   -------------------------------------------------------
    Irrep   Nso     Nmo     Nalpha   Nbeta   Ndocc  Nsocc
   -------------------------------------------------------
     A        167     167       0       0       0       0
   -------------------------------------------------------
    Total     167     167      36      36      36       0
   -------------------------------------------------------

 OEINTS: Overlap, kinetic, potential, dipole, and quadrupole integrals
         stored in file 35.

  ==> Integral Setup <==

  ==> DFJK: Density-Fitted J/K Matrices <==

    J tasked:                  Yes
    K tasked:                  Yes
    wK tasked:                  No
    OpenMP threads:              1
    Integrals threads:           1
    Memory (MB):              1430
    Algorithm:                Core
    Integral Cache:           NONE
    Schwarz Cutoff:          1E-12
    Fitting Condition:       1E-12

   => Auxiliary Basis Set <=

  Basis Set: 
    Number of shells: 360
    Number of basis function: 1129
    Number of Cartesian functions: 1129
    Spherical Harmonics?: false
    Max angular momentum: 3

  Minimum eigenvalue in the overlap matrix is 2.9509797155E-03.
  Using Symmetric Orthogonalization.
  SCF Guess: Core (One-Electron) Hamiltonian.

  ==> Iterations <==

                           Total Energy        Delta E     RMS |[F,P]|

   @DF-RHF iter   1:  -292.08143940864755   -2.92081e+02   5.76925e-02 
   @DF-RHF iter   2:   -34.73727126809428    2.57344e+02   7.56268e-02 DIIS
   @DF-RHF iter   3:  -276.66507743197843   -2.41928e+02   4.84100e-02 DIIS
   @DF-RHF iter   4:  -223.27988716520343    5.33852e+01   6.17918e-02 DIIS
   @DF-RHF iter   5:  -386.07342842588417   -1.62794e+02   8.13899e-03 DIIS
   @DF-RHF iter   6:  -386.85563273197914   -7.82204e-01   4.63105e-03 DIIS
   @DF-RHF iter   7:  -387.10578699005333   -2.50154e-01   8.97595e-04 DIIS
   @DF-RHF iter   8:  -387.11747882182323   -1.16918e-02   3.77320e-04 DIIS
   @DF-RHF iter   9:  -387.11949203723435   -2.01322e-03   7.64300e-05 DIIS
   @DF-RHF iter  10:  -387.11967472065311   -1.82683e-04   3.67137e-05 DIIS
   @DF-RHF iter  11:  -387.11971323524386   -3.85146e-05   1.39634e-05 DIIS
   @DF-RHF iter  12:  -387.11971905067816   -5.81543e-06   5.63202e-06 DIIS
   @DF-RHF iter  13:  -387.11972030203816   -1.25136e-06   1.38948e-06 DIIS
   @DF-RHF iter  14:  -387.11972036941808   -6.73799e-08   4.03158e-07 DIIS

  ==> Post-Iterations <==

    Orbital Energies (a.u.)
    -----------------------

    Doubly Occupied:                                                      

       1A    -20.561059     2A    -11.326664     3A    -11.235261  
       4A    -11.233312     5A    -11.227803     6A    -11.222364  
       7A    -11.220028     8A    -11.219388     9A    -11.212217  
      10A     -1.401571    11A     -1.106482    12A     -1.071558  
      13A     -1.014683    14A     -0.942950    15A     -0.875370  
      16A     -0.824731    17A     -0.789533    18A     -0.784249  
      19A     -0.663917    20A     -0.657615    21A     -0.632978  
      22A     -0.629710    23A     -0.616038    24A     -0.593227  
      25A     -0.567171    26A     -0.558840    27A     -0.537977  
      28A     -0.519447    29A     -0.512122    30A     -0.502661  
      31A     -0.484202    32A     -0.482588    33A     -0.467120  
      34A     -0.461157    35A     -0.444514    36A     -0.408691  

    Virtual:                                                              

      37A      0.154395    38A      0.219677    39A      0.234451  
      40A      0.246527    41A      0.257227    42A      0.270324  
      43A      0.287665    44A      0.298196    45A      0.304402  
      46A      0.310557    47A      0.319079    48A      0.329077  
      49A      0.336051    50A      0.340958    51A      0.354955  
      52A      0.363902    53A      0.373779    54A      0.386773  
      55A      0.402978    56A      0.427087    57A      0.433710  
      58A      0.452070    59A      0.469695    60A      0.474596  
      61A      0.503940    62A      0.683529    63A      0.699659  
      64A      0.710103    65A      0.730519    66A      0.745295  
      67A      0.758912    68A      0.771312    69A      0.784929  
      70A      0.828225    71A      0.852193    72A      0.874243  
      73A      0.887516    74A      0.931096    75A      0.936954  
      76A      0.943172    77A      0.961412    78A      0.982139  
      79A      0.990609    80A      1.014942    81A      1.040174  
      82A      1.077888    83A      1.091895    84A      1.113968  
      85A      1.120248    86A      1.121111    87A      1.141093  
      88A      1.146346    89A      1.158055    90A      1.170711  
      91A      1.177672    92A      1.190038    93A      1.202942  
      94A      1.209231    95A      1.212487    96A      1.218474  
      97A      1.225832    98A      1.236602    99A      1.244911  
     100A      1.263320   101A      1.278622   102A      1.288393  
     103A      1.311133   104A      1.335023   105A      1.369880  
     106A      1.452703   107A      1.479506   108A      1.625810  
     109A      1.660474   110A      1.687115   111A      1.737117  
     112A      1.754896   113A      1.777570   114A      1.815211  
     115A      1.842737   116A      1.863437   117A      1.919551  
     118A      1.939114   119A      2.025431   120A      2.052583  
     121A      2.094677   122A      2.096411   123A      2.128188  
     124A      2.148600   125A      2.175735   126A      2.211040  
     127A      2.221299   128A      2.250264   129A      2.276585  
     130A      2.292801   131A      2.294513   132A      2.335218  
     133A      2.341129   134A      2.369056   135A      2.389822  
     136A      2.441676   137A      2.478672   138A      2.504359  
     139A      2.562454   140A      2.611388   141A      2.637170  
     142A      2.661610   143A      2.702199   144A      2.715440  
     145A      2.721006   146A      2.760693   147A      2.782017  
     148A      2.803054   149A      2.864392   150A      2.954951  
     151A      2.964833   152A      2.984429   153A      2.988825  
     154A      3.017016   155A      3.118426   156A      3.188532  
     157A      3.303411   158A      3.384052   159A      4.322799  
     160A      4.523296   161A      4.574745   162A      4.656444  
     163A      4.743763   164A      4.824415   165A      4.867839  
     166A      4.915231   167A      5.006573  

    Final Occupation by Irrep:
              A 
    DOCC [    36 ]

  Energy converged.

  @DF-RHF Final Energy:  -387.11972036941808

   => Energetics <=

    Nuclear Repulsion Energy =            437.5267312694391535
    One-Electron Energy =               -1391.2742825385321339
    Two-Electron Energy =                 566.6278308996727446
    DFT Exchange-Correlation Energy =       0.0000000000000000
    Empirical Dispersion Energy =           0.0000000000000000
    PCM Polarization Energy =               0.0000000000000000
    EFP Energy =                            0.0000000000000000
    Total Energy =                       -387.1197203694202926

    Alert: EFP and PCM quantities not currently incorporated into SCF psivars.

Properties will be evaluated at   0.000000,   0.000000,   0.000000 Bohr
  ==> Properties <==


Properties computed using the SCF density matrix

  Nuclear Dipole Moment: (a.u.)
     X:     7.8339      Y:   -12.7433      Z:     5.3956

  Electronic Dipole Moment: (a.u.)
     X:    -7.1026      Y:    12.0013      Z:    -4.6279

  Dipole Moment: (a.u.)
     X:     0.7313      Y:    -0.7420      Z:     0.7677     Total:     1.2941

  Dipole Moment: (Debye)
     X:     1.8588      Y:    -1.8860      Z:     1.9512     Total:     3.2892


  Saving occupied orbitals to File 180.

*** tstop() called on cx1-3-1-3.cx1.hpc.ic.ac.uk at Tue Jul  5 16:54:07 2016
Module time:
	user time   =      22.69 seconds =       0.38 minutes
	system time =       0.21 seconds =       0.00 minutes
	total time  =         23 seconds =       0.38 minutes
Total time:
	user time   =      22.69 seconds =       0.38 minutes
	system time =       0.21 seconds =       0.00 minutes
	total time  =         23 seconds =       0.38 minutes


Properties will be evaluated at   0.000000,   0.000000,   0.000000 Bohr

Properties computed using the  density matrix

  Nuclear Dipole Moment: (a.u.)
     X:     7.8339      Y:   -12.7433      Z:     5.3956

  Electronic Dipole Moment: (a.u.)
     X:    -7.1026      Y:    12.0013      Z:    -4.6279

  Dipole Moment: (a.u.)
     X:     0.7313      Y:    -0.7420      Z:     0.7677     Total:     1.2941

  Dipole Moment: (Debye)
     X:     1.8588      Y:    -1.8860      Z:     1.9512     Total:     3.2892

  Quadrupole Moment: (Debye Ang)
    XX:   -64.4514     YY:   -67.8557     ZZ:   -62.3255
    XY:     8.6014     XZ:    -5.6992     YZ:     7.8829

  Traceless Quadrupole Moment: (Debye Ang)
    XX:     0.4261     YY:    -2.9782     ZZ:     2.5520
    XY:     8.6014     XZ:    -5.6992     YZ:     7.8829

  Mulliken Charges: (a.u.)
   Center  Symbol    Alpha    Beta     Spin     Total
       1     H     0.43020  0.43020  0.00000  0.13961
       2     C     2.83467  2.83467  0.00000  0.33067
       3     C     3.20598  3.20598  0.00000 -0.41197
       4     O     4.24156  4.24156  0.00000 -0.48312
       5     C     3.16932  3.16932  0.00000 -0.33864
       6     H     0.39609  0.39609  0.00000  0.20782
       7     H     0.39992  0.39992  0.00000  0.20015
       8     C     3.15664  3.15664  0.00000 -0.31328
       9     H     0.41947  0.41947  0.00000  0.16106
      10     H     0.41315  0.41315  0.00000  0.17369
      11     C     3.15355  3.15355  0.00000 -0.30711
      12     H     0.42183  0.42183  0.00000  0.15634
      13     H     0.41930  0.41930  0.00000  0.16140
      14     C     3.15314  3.15314  0.00000 -0.30628
      15     H     0.42046  0.42046  0.00000  0.15907
      16     H     0.42237  0.42237  0.00000  0.15527
      17     C     3.15283  3.15283  0.00000 -0.30565
      18     H     0.42322  0.42322  0.00000  0.15355
      19     H     0.42144  0.42144  0.00000  0.15711
      20     C     3.24148  3.24148  0.00000 -0.48297
      21     H     0.41987  0.41987  0.00000  0.16026
      22     H     0.42294  0.42294  0.00000  0.15413
      23     H     0.42182  0.42182  0.00000  0.15636
      24     H     0.42044  0.42044  0.00000  0.15912
      25     H     0.41830  0.41830  0.00000  0.16339

   Total alpha = 36.00000, Total beta = 36.00000, Total charge =  0.00000


*** PSI4 exiting successfully. Buy a developer a beer!
