    -----------------------------------------------------------------------
          Psi4: An Open-Source Ab Initio Electronic Structure Package
                              Psi4 (no tag) Driver

                          Git: Rev {detached?}  

    J. M. Turney, A. C. Simmonett, R. M. Parrish, E. G. Hohenstein,
    F. A. Evangelista, J. T. Fermann, B. J. Mintz, L. A. Burns, J. J. Wilke,
    M. L. Abrams, N. J. Russ, M. L. Leininger, C. L. Janssen, E. T. Seidl,
    W. D. Allen, H. F. Schaefer, R. A. King, E. F. Valeev, C. D. Sherrill,
    and T. D. Crawford, WIREs Comput. Mol. Sci. 2, 556-565 (2012)
    (doi: 10.1002/wcms.93)

                         Additional Contributions by
    A. E. DePrince, M. Saitow, U. Bozkaya, A. Yu. Sokolov
    -----------------------------------------------------------------------


    Psi4 started on: Tue Jul  5 16:33:09 2016

    Process ID:  17622
    PSI4DATADIR: /export131/home/mjharvey/miniconda3/share
    Memory level set to 256.000 MB

  ==> Input File <==

--------------------------------------------------------------------------
set {
	reference rhf
	basis 6-31G*
}


set_num_threads( 1 )
memory 2 gb

molecule MOL {
0 1

H	 1.066677	 1.721285	 0.659155
O	 0.428306	 1.057262	 0.900582
C	 0.489431	 0.077273	 0.000046
C	 -0.764129	 -0.759190	 0.000191
O	 1.436301	 -0.082777	 -0.698801
C	 -2.038368	 0.075731	 -0.000248
H	 -0.717284	 -1.412404	 -0.866059
H	 -0.717458	 -1.411724	 0.866967
H	 -2.086483	 0.712501	 -0.875098
H	 -2.908485	 -0.571682	 -0.000042
H	 -2.086576	 0.713280	 0.874068

	symmetry c1
}
set optking {
	frozen_dihedral = ("
		2 3 4 7
	")
}

ee = energy('scf')
oeprop('DIPOLE', 'QUADRUPOLE', 'MULLIKEN_CHARGES')
f=open( 'psi4out.xyz', 'w' )
f.write( "11  " )
f.write( str(ee) + "\n" )
f.write( MOL.save_string_xyz() )
f.close()
--------------------------------------------------------------------------

  Memory set to   2.000 GiB by Python script.

*** tstart() called on cx1-3-15-3.cx1.hpc.ic.ac.uk
*** at Tue Jul  5 16:33:10 2016


         ---------------------------------------------------------
                                   SCF
            by Justin Turney, Rob Parrish, and Andy Simmonett
                              RHF Reference
                        1 Threads,   2000 MiB Core
         ---------------------------------------------------------

  ==> Geometry <==

    Molecular point group: c1
    Full point group: C1

    Geometry (in Angstrom), charge = 0, multiplicity = 1:

       Center              X                  Y                   Z               Mass       
    ------------   -----------------  -----------------  -----------------  -----------------
           H          1.140160270168     1.612394769966     0.606593482300     1.007825032070
           O          0.501789270168     0.948371769966     0.848020482300    15.994914619560
           C          0.562914270168    -0.031617230034    -0.052515517700    12.000000000000
           C         -0.690645729832    -0.868080230034    -0.052370517700    12.000000000000
           O          1.509784270168    -0.191667230034    -0.751362517700    15.994914619560
           C         -1.964884729832    -0.033159230034    -0.052809517700    12.000000000000
           H         -0.643800729832    -1.521294230034    -0.918620517700     1.007825032070
           H         -0.643974729832    -1.520614230034     0.814405482300     1.007825032070
           H         -2.012999729832     0.603610769966    -0.927659517700     1.007825032070
           H         -2.835001729832    -0.680572230034    -0.052603517700     1.007825032070
           H         -2.013092729832     0.604389769966     0.821506482300     1.007825032070

  Running in c1 symmetry.

  Rotational constants: A =      0.31300  B =      0.13371  C =      0.10356 [cm^-1]
  Rotational constants: A =   9383.53493  B =   4008.54560  C =   3104.73429 [MHz]
  Nuclear repulsion =  180.523479798541274

  Charge       = 0
  Multiplicity = 1
  Electrons    = 40
  Nalpha       = 20
  Nbeta        = 20

  ==> Algorithm <==

  SCF Algorithm Type is DF.
  DIIS enabled.
  MOM disabled.
  Fractional occupation disabled.
  Guess Type is CORE.
  Energy threshold   = 1.00e-06
  Density threshold  = 1.00e-06
  Integral threshold = 0.00e+00

  ==> Primary Basis <==

  Basis Set: 6-31G*
    Number of shells: 42
    Number of basis function: 87
    Number of Cartesian functions: 87
    Spherical Harmonics?: false
    Max angular momentum: 2

  ==> Pre-Iterations <==

   -------------------------------------------------------
    Irrep   Nso     Nmo     Nalpha   Nbeta   Ndocc  Nsocc
   -------------------------------------------------------
     A         87      87       0       0       0       0
   -------------------------------------------------------
    Total      87      87      20      20      20       0
   -------------------------------------------------------

 OEINTS: Overlap, kinetic, potential, dipole, and quadrupole integrals
         stored in file 35.

  ==> Integral Setup <==

  ==> DFJK: Density-Fitted J/K Matrices <==

    J tasked:                  Yes
    K tasked:                  Yes
    wK tasked:                  No
    OpenMP threads:              1
    Integrals threads:           1
    Memory (MB):              1430
    Algorithm:                Core
    Integral Cache:           NONE
    Schwarz Cutoff:          1E-12
    Fitting Condition:       1E-12

   => Auxiliary Basis Set <=

  Basis Set: 
    Number of shells: 174
    Number of basis function: 555
    Number of Cartesian functions: 555
    Spherical Harmonics?: false
    Max angular momentum: 3

  Minimum eigenvalue in the overlap matrix is 3.6549965859E-03.
  Using Symmetric Orthogonalization.
  SCF Guess: Core (One-Electron) Hamiltonian.

  ==> Iterations <==

                           Total Energy        Delta E     RMS |[F,P]|

   @DF-RHF iter   1:  -217.49998016950249   -2.17500e+02   8.21984e-02 
   @DF-RHF iter   2:  -156.92872763955509    6.05713e+01   9.10594e-02 DIIS
   @DF-RHF iter   3:  -249.33586527379018   -9.24071e+01   4.18610e-02 DIIS
   @DF-RHF iter   4:  -240.18495075970614    9.15091e+00   6.11467e-02 DIIS
   @DF-RHF iter   5:  -266.50995346847469   -2.63250e+01   9.50718e-03 DIIS
   @DF-RHF iter   6:  -266.70999490506233   -2.00041e-01   6.70457e-03 DIIS
   @DF-RHF iter   7:  -266.83278236121794   -1.22787e-01   1.19577e-03 DIIS
   @DF-RHF iter   8:  -266.83960024789360   -6.81789e-03   5.34002e-04 DIIS
   @DF-RHF iter   9:  -266.84106131330441   -1.46107e-03   1.74372e-04 DIIS
   @DF-RHF iter  10:  -266.84119055629424   -1.29243e-04   6.71756e-05 DIIS
   @DF-RHF iter  11:  -266.84121635176825   -2.57955e-05   1.84592e-05 DIIS
   @DF-RHF iter  12:  -266.84121805542702   -1.70366e-06   5.62641e-06 DIIS
   @DF-RHF iter  13:  -266.84121825838429   -2.02957e-07   1.69406e-06 DIIS
   @DF-RHF iter  14:  -266.84121828446325   -2.60790e-08   4.89912e-07 DIIS

  ==> Post-Iterations <==

    Orbital Energies (a.u.)
    -----------------------

    Doubly Occupied:                                                      

       1A    -20.612804     2A    -20.552141     3A    -11.381507  
       4A    -11.242928     5A    -11.227009     6A     -1.475343  
       7A     -1.366425     8A     -1.068607     9A     -0.910510  
      10A     -0.819600    11A     -0.702326    12A     -0.684208  
      13A     -0.648647    14A     -0.612978    15A     -0.578316  
      16A     -0.552835    17A     -0.526238    18A     -0.508699  
      19A     -0.477958    20A     -0.440776  

    Virtual:                                                              

      21A      0.187377    22A      0.219290    23A      0.267618  
      24A      0.289133    25A      0.301621    26A      0.316482  
      27A      0.340407    28A      0.397632    29A      0.423977  
      30A      0.493188    31A      0.550195    32A      0.722188  
      33A      0.730053    34A      0.749411    35A      0.782565  
      36A      0.837114    37A      0.888988    38A      0.934175  
      39A      0.970764    40A      0.989337    41A      1.047453  
      42A      1.073754    43A      1.122153    44A      1.137460  
      45A      1.162059    46A      1.177099    47A      1.202084  
      48A      1.223497    49A      1.234269    50A      1.287396  
      51A      1.317328    52A      1.351359    53A      1.360705  
      54A      1.496956    55A      1.634948    56A      1.683101  
      57A      1.725240    58A      1.803556    59A      1.852791  
      60A      1.966913    61A      2.020117    62A      2.067426  
      63A      2.103460    64A      2.121465    65A      2.154317  
      66A      2.227246    67A      2.260148    68A      2.283295  
      69A      2.353606    70A      2.440475    71A      2.584860  
      72A      2.633086    73A      2.664276    74A      2.707723  
      75A      2.740719    76A      2.857124    77A      2.937661  
      78A      3.045286    79A      3.113224    80A      3.242591  
      81A      3.374370    82A      3.476790    83A      4.243595  
      84A      4.492915    85A      4.630185    86A      4.739813  
      87A      4.946108  

    Final Occupation by Irrep:
              A 
    DOCC [    20 ]

  Energy converged.

  @DF-RHF Final Energy:  -266.84121828446325

   => Energetics <=

    Nuclear Repulsion Energy =            180.5234797985412740
    One-Electron Energy =                -721.9497092730756549
    Two-Electron Energy =                 274.5850111900704178
    DFT Exchange-Correlation Energy =       0.0000000000000000
    Empirical Dispersion Energy =           0.0000000000000000
    PCM Polarization Energy =               0.0000000000000000
    EFP Energy =                            0.0000000000000000
    Total Energy =                       -266.8412182844639347

    Alert: EFP and PCM quantities not currently incorporated into SCF psivars.

Properties will be evaluated at   0.000000,   0.000000,   0.000000 Bohr
  ==> Properties <==


Properties computed using the SCF density matrix

  Nuclear Dipole Moment: (a.u.)
     X:    -6.5608      Y:    -0.8420      Z:     0.3226

  Electronic Dipole Moment: (a.u.)
     X:     5.8678      Y:     1.1131      Z:    -0.0184

  Dipole Moment: (a.u.)
     X:    -0.6930      Y:     0.2711      Z:     0.3042     Total:     0.8039

  Dipole Moment: (Debye)
     X:    -1.7614      Y:     0.6890      Z:     0.7731     Total:     2.0432


  Saving occupied orbitals to File 180.

*** tstop() called on cx1-3-15-3.cx1.hpc.ic.ac.uk at Tue Jul  5 16:33:13 2016
Module time:
	user time   =       3.32 seconds =       0.06 minutes
	system time =       0.03 seconds =       0.00 minutes
	total time  =          3 seconds =       0.05 minutes
Total time:
	user time   =       3.32 seconds =       0.06 minutes
	system time =       0.03 seconds =       0.00 minutes
	total time  =          3 seconds =       0.05 minutes


Properties will be evaluated at   0.000000,   0.000000,   0.000000 Bohr

Properties computed using the  density matrix

  Nuclear Dipole Moment: (a.u.)
     X:    -6.5608      Y:    -0.8420      Z:     0.3226

  Electronic Dipole Moment: (a.u.)
     X:     5.8678      Y:     1.1131      Z:    -0.0184

  Dipole Moment: (a.u.)
     X:    -0.6930      Y:     0.2711      Z:     0.3042     Total:     0.8039

  Dipole Moment: (Debye)
     X:    -1.7614      Y:     0.6890      Z:     0.7731     Total:     2.0432

  Quadrupole Moment: (Debye Ang)
    XX:   -32.4499     YY:   -26.4069     ZZ:   -32.3858
    XY:     3.6604     XZ:     3.2047     YZ:    -0.9789

  Traceless Quadrupole Moment: (Debye Ang)
    XX:    -2.0357     YY:     4.0073     ZZ:    -1.9716
    XY:     3.6604     XZ:     3.2047     YZ:    -0.9789

  Mulliken Charges: (a.u.)
   Center  Symbol    Alpha    Beta     Spin     Total
       1     H     0.26682  0.26682  0.00000  0.46637
       2     O     4.34747  4.34747  0.00000 -0.69494
       3     C     2.62942  2.62942  0.00000  0.74117
       4     C     3.20537  3.20537  0.00000 -0.41074
       5     O     4.27680  4.27680  0.00000 -0.55359
       6     C     3.24769  3.24769  0.00000 -0.49539
       7     H     0.39639  0.39639  0.00000  0.20722
       8     H     0.39909  0.39909  0.00000  0.20182
       9     H     0.41453  0.41453  0.00000  0.17095
      10     H     0.41280  0.41280  0.00000  0.17440
      11     H     0.40364  0.40364  0.00000  0.19273

   Total alpha = 20.00000, Total beta = 20.00000, Total charge =  0.00000


*** PSI4 exiting successfully. Buy a developer a beer!
