    -----------------------------------------------------------------------
          Psi4: An Open-Source Ab Initio Electronic Structure Package
                              Psi4 (no tag) Driver

                          Git: Rev {detached?}  

    J. M. Turney, A. C. Simmonett, R. M. Parrish, E. G. Hohenstein,
    F. A. Evangelista, J. T. Fermann, B. J. Mintz, L. A. Burns, J. J. Wilke,
    M. L. Abrams, N. J. Russ, M. L. Leininger, C. L. Janssen, E. T. Seidl,
    W. D. Allen, H. F. Schaefer, R. A. King, E. F. Valeev, C. D. Sherrill,
    and T. D. Crawford, WIREs Comput. Mol. Sci. 2, 556-565 (2012)
    (doi: 10.1002/wcms.93)

                         Additional Contributions by
    A. E. DePrince, M. Saitow, U. Bozkaya, A. Yu. Sokolov
    -----------------------------------------------------------------------


    Psi4 started on: Tue Jul  5 17:02:15 2016

    Process ID:  16756
    PSI4DATADIR: /export131/home/mjharvey/miniconda3/share
    Memory level set to 256.000 MB

  ==> Input File <==

--------------------------------------------------------------------------
set {
	reference rhf
	basis 6-31G*
}


set_num_threads( 1 )
memory 2 gb

molecule MOL {
0 1

H	 -0.000158	 1.970498	 0.756846
O	 -0.000074	 1.880206	 -0.189275
C	 -0.000015	 0.544847	 -0.545111
C	 -1.146713	 -0.178430	 0.153418
C	 1.372058	 -0.064025	 -0.275501
H	 -0.178470	 0.486751	 -1.608540
F	 -1.458476	 -1.265797	 -0.518877
F	 -0.837397	 -0.533900	 1.382370
F	 -2.224607	 0.587826	 0.204348
F	 2.283717	 0.570380	 -0.981153
F	 1.423530	 -1.339565	 -0.596012
F	 1.696156	 0.053849	 1.002248

	symmetry c1
}
set optking {
	frozen_dihedral = ("
		6 3 2 1
	")
}

ee = energy('scf')
oeprop('DIPOLE', 'QUADRUPOLE', 'MULLIKEN_CHARGES')
f=open( 'psi4out.xyz', 'w' )
f.write( "12  " )
f.write( str(ee) + "\n" )
f.write( MOL.save_string_xyz() )
f.close()
--------------------------------------------------------------------------

  Memory set to   2.000 GiB by Python script.

*** tstart() called on cx1-3-4-4.cx1.hpc.ic.ac.uk
*** at Tue Jul  5 17:02:15 2016


         ---------------------------------------------------------
                                   SCF
            by Justin Turney, Rob Parrish, and Andy Simmonett
                              RHF Reference
                        1 Threads,   2000 MiB Core
         ---------------------------------------------------------

  ==> Geometry <==

    Molecular point group: c1
    Full point group: C1

    Geometry (in Angstrom), charge = 0, multiplicity = 1:

       Center              X                  Y                   Z               Mass       
    ------------   -----------------  -----------------  -----------------  -----------------
           H         -0.115019694935     1.973086914554     0.771889692162     1.007825032070
           O         -0.114935694935     1.882794914554    -0.174231307838    15.994914619560
           C         -0.114876694935     0.547435914554    -0.530067307838    12.000000000000
           C         -1.261574694935    -0.175841085446     0.168461692162    12.000000000000
           C          1.257196305065    -0.061436085446    -0.260457307838    12.000000000000
           H         -0.293331694935     0.489339914554    -1.593496307838     1.007825032070
           F         -1.573337694935    -1.263208085446    -0.503833307838    18.998403224000
           F         -0.952258694935    -0.531311085446     1.397413692162    18.998403224000
           F         -2.339468694935     0.590414914554     0.219391692162    18.998403224000
           F          2.168855305065     0.572968914554    -0.966109307838    18.998403224000
           F          1.308668305065    -1.336976085446    -0.580968307838    18.998403224000
           F          1.581294305065     0.056437914554     1.017291692162    18.998403224000

  Running in c1 symmetry.

  Rotational constants: A =      0.07217  B =      0.03576  C =      0.03170 [cm^-1]
  Rotational constants: A =   2163.58205  B =   1071.94235  C =    950.28496 [MHz]
  Nuclear repulsion =  670.569370183419096

  Charge       = 0
  Multiplicity = 1
  Electrons    = 82
  Nalpha       = 41
  Nbeta        = 41

  ==> Algorithm <==

  SCF Algorithm Type is DF.
  DIIS enabled.
  MOM disabled.
  Fractional occupation disabled.
  Guess Type is CORE.
  Energy threshold   = 1.00e-06
  Density threshold  = 1.00e-06
  Integral threshold = 0.00e+00

  ==> Primary Basis <==

  Basis Set: 6-31G*
    Number of shells: 64
    Number of basis function: 154
    Number of Cartesian functions: 154
    Spherical Harmonics?: false
    Max angular momentum: 2

  ==> Pre-Iterations <==

   -------------------------------------------------------
    Irrep   Nso     Nmo     Nalpha   Nbeta   Ndocc  Nsocc
   -------------------------------------------------------
     A        154     154       0       0       0       0
   -------------------------------------------------------
    Total     154     154      41      41      41       0
   -------------------------------------------------------

 OEINTS: Overlap, kinetic, potential, dipole, and quadrupole integrals
         stored in file 35.

  ==> Integral Setup <==

  ==> DFJK: Density-Fitted J/K Matrices <==

    J tasked:                  Yes
    K tasked:                  Yes
    wK tasked:                  No
    OpenMP threads:              1
    Integrals threads:           1
    Memory (MB):              1430
    Algorithm:                Core
    Integral Cache:           NONE
    Schwarz Cutoff:          1E-12
    Fitting Condition:       1E-12

   => Auxiliary Basis Set <=

  Basis Set: 
    Number of shells: 258
    Number of basis function: 860
    Number of Cartesian functions: 860
    Spherical Harmonics?: false
    Max angular momentum: 3

  Minimum eigenvalue in the overlap matrix is 1.5154335829E-03.
  Using Symmetric Orthogonalization.
  SCF Guess: Core (One-Electron) Hamiltonian.

  ==> Iterations <==

                           Total Energy        Delta E     RMS |[F,P]|

   @DF-RHF iter   1:  -702.01768694444786   -7.02018e+02   6.77180e-02 
   @DF-RHF iter   2:  -548.91367108804320    1.53104e+02   9.12429e-02 DIIS
   @DF-RHF iter   3:  -734.19393989646369   -1.85280e+02   5.18167e-02 DIIS
   @DF-RHF iter   4:  -743.31259823051391   -9.11866e+00   4.70670e-02 DIIS
   @DF-RHF iter   5:  -781.20461951885227   -3.78920e+01   1.88885e-02 DIIS
   @DF-RHF iter   6:  -786.00167184753445   -4.79705e+00   5.59212e-03 DIIS
   @DF-RHF iter   7:  -786.26115101623941   -2.59479e-01   1.12232e-03 DIIS
   @DF-RHF iter   8:  -786.27201280590748   -1.08618e-02   4.65671e-04 DIIS
   @DF-RHF iter   9:  -786.27442371453776   -2.41091e-03   1.98025e-04 DIIS
   @DF-RHF iter  10:  -786.27481775009483   -3.94036e-04   6.19703e-05 DIIS
   @DF-RHF iter  11:  -786.27487281908657   -5.50690e-05   1.88103e-05 DIIS
   @DF-RHF iter  12:  -786.27487806765407   -5.24857e-06   4.69586e-06 DIIS
   @DF-RHF iter  13:  -786.27487852207287   -4.54419e-07   1.51606e-06 DIIS
   @DF-RHF iter  14:  -786.27487856069865   -3.86258e-08   4.83053e-07 DIIS

  ==> Post-Iterations <==

    Orbital Energies (a.u.)
    -----------------------

    Doubly Occupied:                                                      

       1A    -26.366196     2A    -26.362354     3A    -26.360027  
       4A    -26.359754     5A    -26.359017     6A    -26.356800  
       7A    -20.615972     8A    -11.527146     9A    -11.524777  
      10A    -11.348657    11A     -1.765165    12A     -1.758267  
      13A     -1.663039    14A     -1.658268    15A     -1.655960  
      16A     -1.653933    17A     -1.435072    18A     -1.101699  
      19A     -0.997020    20A     -0.938210    21A     -0.864522  
      22A     -0.862695    23A     -0.851609    24A     -0.844573  
      25A     -0.832385    26A     -0.812995    27A     -0.742364  
      28A     -0.728179    29A     -0.724503    30A     -0.718835  
      31A     -0.689219    32A     -0.685534    33A     -0.683096  
      34A     -0.675407    35A     -0.669297    36A     -0.661983  
      37A     -0.657025    38A     -0.653174    39A     -0.618479  
      40A     -0.549727    41A     -0.506087  

    Virtual:                                                              

      42A      0.208270    43A      0.244334    44A      0.289653  
      45A      0.333431    46A      0.370545    47A      0.408324  
      48A      0.451607    49A      0.461797    50A      0.468213  
      51A      0.535230    52A      0.536147    53A      0.665271  
      54A      0.673027    55A      0.721781    56A      0.729046  
      57A      0.742928    58A      0.791462    59A      0.794077  
      60A      0.845866    61A      0.911611    62A      0.954152  
      63A      1.055181    64A      1.104265    65A      1.124336  
      66A      1.168608    67A      1.224820    68A      1.241350  
      69A      1.283365    70A      1.323108    71A      1.351695  
      72A      1.355093    73A      1.359704    74A      1.374766  
      75A      1.442438    76A      1.457091    77A      1.528239  
      78A      1.572890    79A      1.583786    80A      1.589958  
      81A      1.608886    82A      1.612877    83A      1.623379  
      84A      1.644246    85A      1.652653    86A      1.657239  
      87A      1.662184    88A      1.676073    89A      1.701093  
      90A      1.729223    91A      1.740300    92A      1.790228  
      93A      1.853999    94A      1.887080    95A      1.892606  
      96A      1.951168    97A      1.974090    98A      1.982493  
      99A      1.997439   100A      2.093071   101A      2.096764  
     102A      2.115464   103A      2.118536   104A      2.121028  
     105A      2.134868   106A      2.158161   107A      2.169942  
     108A      2.193365   109A      2.287309   110A      2.310048  
     111A      2.325408   112A      2.325739   113A      2.338279  
     114A      2.357937   115A      2.391574   116A      2.400622  
     117A      2.403413   118A      2.447697   119A      2.457286  
     120A      2.488985   121A      2.518260   122A      2.551352  
     123A      2.590083   124A      2.611327   125A      2.651900  
     126A      2.710236   127A      2.726059   128A      2.805846  
     129A      2.823276   130A      2.911531   131A      2.954951  
     132A      3.059594   133A      3.130376   134A      3.166838  
     135A      3.182495   136A      3.247054   137A      3.266999  
     138A      3.327645   139A      3.406040   140A      3.415022  
     141A      3.432040   142A      3.450029   143A      3.454185  
     144A      3.474516   145A      4.174066   146A      4.616694  
     147A      4.751353   148A      4.806207   149A      5.020468  
     150A      5.147525   151A      5.281148   152A      5.652154  
     153A      5.876843   154A      5.992218  

    Final Occupation by Irrep:
              A 
    DOCC [    41 ]

  Energy converged.

  @DF-RHF Final Energy:  -786.27487856069865

   => Energetics <=

    Nuclear Repulsion Energy =            670.5693701834190961
    One-Electron Energy =               -2428.0104672380293778
    Two-Electron Energy =                 971.1662184939118561
    DFT Exchange-Correlation Energy =       0.0000000000000000
    Empirical Dispersion Energy =           0.0000000000000000
    PCM Polarization Energy =               0.0000000000000000
    EFP Energy =                            0.0000000000000000
    Total Energy =                       -786.2748785606984256

    Alert: EFP and PCM quantities not currently incorporated into SCF psivars.

Properties will be evaluated at   0.000000,   0.000000,   0.000000 Bohr
  ==> Properties <==


Properties computed using the SCF density matrix

  Nuclear Dipole Moment: (a.u.)
     X:    -0.5661      Y:     4.1209      Z:    -1.3212

  Electronic Dipole Moment: (a.u.)
     X:     0.4522      Y:    -3.9390      Z:     1.3546

  Dipole Moment: (a.u.)
     X:    -0.1139      Y:     0.1819      Z:     0.0334     Total:     0.2172

  Dipole Moment: (Debye)
     X:    -0.2895      Y:     0.4623      Z:     0.0849     Total:     0.5521


  Saving occupied orbitals to File 180.

*** tstop() called on cx1-3-4-4.cx1.hpc.ic.ac.uk at Tue Jul  5 17:02:33 2016
Module time:
	user time   =      17.73 seconds =       0.30 minutes
	system time =       0.23 seconds =       0.00 minutes
	total time  =         18 seconds =       0.30 minutes
Total time:
	user time   =      17.73 seconds =       0.30 minutes
	system time =       0.23 seconds =       0.00 minutes
	total time  =         18 seconds =       0.30 minutes


Properties will be evaluated at   0.000000,   0.000000,   0.000000 Bohr

Properties computed using the  density matrix

  Nuclear Dipole Moment: (a.u.)
     X:    -0.5661      Y:     4.1209      Z:    -1.3212

  Electronic Dipole Moment: (a.u.)
     X:     0.4522      Y:    -3.9390      Z:     1.3546

  Dipole Moment: (a.u.)
     X:    -0.1139      Y:     0.1819      Z:     0.0334     Total:     0.2172

  Dipole Moment: (Debye)
     X:    -0.2895      Y:     0.4623      Z:     0.0849     Total:     0.5521

  Quadrupole Moment: (Debye Ang)
    XX:   -56.6070     YY:   -55.1469     ZZ:   -49.9920
    XY:    -0.2378     XZ:     0.5717     YZ:     2.9247

  Traceless Quadrupole Moment: (Debye Ang)
    XX:    -2.6917     YY:    -1.2316     ZZ:     3.9233
    XY:    -0.2378     XZ:     0.5717     YZ:     2.9247

  Mulliken Charges: (a.u.)
   Center  Symbol    Alpha    Beta     Spin     Total
       1     H     0.26761  0.26761  0.00000  0.46479
       2     O     4.36088  4.36088  0.00000 -0.72175
       3     C     3.04829  3.04829  0.00000 -0.09659
       4     C     2.45092  2.45092  0.00000  1.09816
       5     C     2.44154  2.44154  0.00000  1.11692
       6     H     0.37454  0.37454  0.00000  0.25091
       7     F     4.67534  4.67534  0.00000 -0.35068
       8     F     4.67467  4.67467  0.00000 -0.34933
       9     F     4.67652  4.67652  0.00000 -0.35304
      10     F     4.67500  4.67500  0.00000 -0.35000
      11     F     4.67401  4.67401  0.00000 -0.34802
      12     F     4.68069  4.68069  0.00000 -0.36137

   Total alpha = 41.00000, Total beta = 41.00000, Total charge =  0.00000


*** PSI4 exiting successfully. Buy a developer a beer!
