    -----------------------------------------------------------------------
          Psi4: An Open-Source Ab Initio Electronic Structure Package
                              Psi4 (no tag) Driver

                          Git: Rev {detached?}  

    J. M. Turney, A. C. Simmonett, R. M. Parrish, E. G. Hohenstein,
    F. A. Evangelista, J. T. Fermann, B. J. Mintz, L. A. Burns, J. J. Wilke,
    M. L. Abrams, N. J. Russ, M. L. Leininger, C. L. Janssen, E. T. Seidl,
    W. D. Allen, H. F. Schaefer, R. A. King, E. F. Valeev, C. D. Sherrill,
    and T. D. Crawford, WIREs Comput. Mol. Sci. 2, 556-565 (2012)
    (doi: 10.1002/wcms.93)

                         Additional Contributions by
    A. E. DePrince, M. Saitow, U. Bozkaya, A. Yu. Sokolov
    -----------------------------------------------------------------------


    Psi4 started on: Tue Jul  5 17:09:23 2016

    Process ID:   3443
    PSI4DATADIR: /export131/home/mjharvey/miniconda3/share
    Memory level set to 256.000 MB

  ==> Input File <==

--------------------------------------------------------------------------
set {
	reference rhf
	basis 6-31G*
}


set_num_threads( 1 )
memory 2 gb

molecule MOL {
0 1

H	 1.466999	 -1.606146	 2.098650
O	 2.014182	 -0.893155	 2.395533
C	 1.231231	 0.258349	 2.578886
C	 -0.045548	 0.097161	 1.772908
H	 0.992260	 0.395335	 3.632658
H	 1.770860	 1.145098	 2.249013
C	 0.198102	 0.111031	 0.262842
H	 -0.727637	 0.896526	 2.049492
H	 -0.520612	 -0.834452	 2.067678
C	 1.331804	 -0.827780	 -0.158768
H	 -0.720372	 -0.164095	 -0.249880
H	 0.436822	 1.124355	 -0.057635
C	 2.723619	 -0.410569	 0.329459
H	 1.342964	 -0.912588	 -1.244120
H	 1.116806	 -1.824343	 0.220779
C	 2.789171	 -0.022053	 1.807665
H	 3.058155	 0.434150	 -0.267721
H	 3.429041	 -1.216225	 0.135903
H	 2.084523	 0.773898	 2.033434
H	 2.561886	 -0.859609	 2.458832
H	 3.781465	 0.332546	 2.069136

	symmetry c1
}
set optking {
	frozen_dihedral = ("
		2 3 4 8,
		8 4 7 10,
		4 7 10 14,
		16 13 10 14
	")
}

ee = energy('scf')
oeprop('DIPOLE', 'QUADRUPOLE', 'MULLIKEN_CHARGES')
f=open( 'psi4out.xyz', 'w' )
f.write( "21  " )
f.write( str(ee) + "\n" )
f.write( MOL.save_string_xyz() )
f.close()
--------------------------------------------------------------------------

  Memory set to   2.000 GiB by Python script.

*** tstart() called on cx1-3-2-3.cx1.hpc.ic.ac.uk
*** at Tue Jul  5 17:09:23 2016


         ---------------------------------------------------------
                                   SCF
            by Justin Turney, Rob Parrish, and Andy Simmonett
                              RHF Reference
                        1 Threads,   2000 MiB Core
         ---------------------------------------------------------

  ==> Geometry <==

    Molecular point group: c1
    Full point group: C1

    Geometry (in Angstrom), charge = 0, multiplicity = 1:

       Center              X                  Y                   Z               Mass       
    ------------   -----------------  -----------------  -----------------  -----------------
           H         -0.013714405996    -1.350075521569     0.778795577590     1.007825032070
           O          0.533468594004    -0.637084521569     1.075678577590    15.994914619560
           C         -0.249482405996     0.514419478431     1.259031577590    12.000000000000
           C         -1.526261405996     0.353231478431     0.453053577590    12.000000000000
           H         -0.488453405996     0.651405478431     2.312803577590     1.007825032070
           H          0.290146594004     1.401168478431     0.929158577590     1.007825032070
           C         -1.282611405996     0.367101478431    -1.057012422410    12.000000000000
           H         -2.208350405996     1.152596478431     0.729637577590     1.007825032070
           H         -2.001325405996    -0.578381521569     0.747823577590     1.007825032070
           C         -0.148909405996    -0.571709521569    -1.478622422410    12.000000000000
           H         -2.201085405996     0.091975478431    -1.569734422410     1.007825032070
           H         -1.043891405996     1.380425478431    -1.377489422410     1.007825032070
           C          1.242905594004    -0.154498521569    -0.990395422410    12.000000000000
           H         -0.137749405996    -0.656517521569    -2.563974422410     1.007825032070
           H         -0.363907405996    -1.568272521569    -1.099075422410     1.007825032070
           C          1.308457594004     0.234017478431     0.487810577590    12.000000000000
           H          1.577441594004     0.690220478431    -1.587575422410     1.007825032070
           H          1.948327594004    -0.960154521569    -1.183951422410     1.007825032070
           H          0.603809594004     1.029968478431     0.713579577590     1.007825032070
           H          1.081172594004    -0.603538521569     1.138977577590     1.007825032070
           H          2.300751594004     0.588616478431     0.749281577590     1.007825032070

  Running in c1 symmetry.

  Rotational constants: A =      0.11788  B =      0.10771  C =      0.06818 [cm^-1]
  Rotational constants: A =   3533.98737  B =   3229.01575  C =   2044.01708 [MHz]
  Nuclear repulsion =  386.459820606767153

  Charge       = 0
  Multiplicity = 1
  Electrons    = 58
  Nalpha       = 29
  Nbeta        = 29

  ==> Algorithm <==

  SCF Algorithm Type is DF.
  DIIS enabled.
  MOM disabled.
  Fractional occupation disabled.
  Guess Type is CORE.
  Energy threshold   = 1.00e-06
  Density threshold  = 1.00e-06
  Integral threshold = 0.00e+00

  ==> Primary Basis <==

  Basis Set: 6-31G*
    Number of shells: 70
    Number of basis function: 133
    Number of Cartesian functions: 133
    Spherical Harmonics?: false
    Max angular momentum: 2

  ==> Pre-Iterations <==

   -------------------------------------------------------
    Irrep   Nso     Nmo     Nalpha   Nbeta   Ndocc  Nsocc
   -------------------------------------------------------
     A        133     133       0       0       0       0
   -------------------------------------------------------
    Total     133     133      29      29      29       0
   -------------------------------------------------------

 OEINTS: Overlap, kinetic, potential, dipole, and quadrupole integrals
         stored in file 35.

  ==> Integral Setup <==

  ==> DFJK: Density-Fitted J/K Matrices <==

    J tasked:                  Yes
    K tasked:                  Yes
    wK tasked:                  No
    OpenMP threads:              1
    Integrals threads:           1
    Memory (MB):              1430
    Algorithm:                Core
    Integral Cache:           NONE
    Schwarz Cutoff:          1E-12
    Fitting Condition:       1E-12

   => Auxiliary Basis Set <=

  Basis Set: 
    Number of shells: 294
    Number of basis function: 917
    Number of Cartesian functions: 917
    Spherical Harmonics?: false
    Max angular momentum: 3

  Minimum eigenvalue in the overlap matrix is 1.4812559107E-03.
  Using Symmetric Orthogonalization.
  SCF Guess: Core (One-Electron) Hamiltonian.

  ==> Iterations <==

                           Total Energy        Delta E     RMS |[F,P]|

   @DF-RHF iter   1:  -236.67609790840106   -2.36676e+02   7.35021e-02 
   @DF-RHF iter   2:  -192.97784868033602    4.36982e+01   5.82031e-02 DIIS
   @DF-RHF iter   3:  -222.56755665568585   -2.95897e+01   7.07186e-02 DIIS
   @DF-RHF iter   4:  -293.91832618468948   -7.13508e+01   2.86622e-02 DIIS
   @DF-RHF iter   5:  -307.44958008952040   -1.35313e+01   1.04844e-02 DIIS
   @DF-RHF iter   6:  -308.32692709925175   -8.77347e-01   3.94793e-03 DIIS
   @DF-RHF iter   7:  -308.42968484901667   -1.02758e-01   1.14720e-03 DIIS
   @DF-RHF iter   8:  -308.44082986643275   -1.11450e-02   5.91588e-04 DIIS
   @DF-RHF iter   9:  -308.44485777900343   -4.02791e-03   1.90393e-04 DIIS
   @DF-RHF iter  10:  -308.44571014907490   -8.52370e-04   7.08817e-05 DIIS
   @DF-RHF iter  11:  -308.44590162800591   -1.91479e-04   4.55566e-05 DIIS
   @DF-RHF iter  12:  -308.44601375884440   -1.12131e-04   3.20088e-05 DIIS
   @DF-RHF iter  13:  -308.44613048959309   -1.16731e-04   1.73649e-05 DIIS
   @DF-RHF iter  14:  -308.44616965586499   -3.91663e-05   5.12114e-06 DIIS
   @DF-RHF iter  15:  -308.44617151848331   -1.86262e-06   1.75412e-06 DIIS
   @DF-RHF iter  16:  -308.44617164080205   -1.22319e-07   8.11025e-07 DIIS

  ==> Post-Iterations <==

    Orbital Energies (a.u.)
    -----------------------

    Doubly Occupied:                                                      

       1A    -20.721005     2A    -11.367856     3A    -11.250395  
       4A    -11.227484     5A    -11.209200     6A    -11.205627  
       7A    -11.204603     8A     -1.873695     9A     -1.278893  
      10A     -1.154543    11A     -1.081822    12A     -1.023809  
      13A     -0.916831    14A     -0.889450    15A     -0.882195  
      16A     -0.796006    17A     -0.717854    18A     -0.701456  
      19A     -0.640024    20A     -0.618474    21A     -0.590518  
      22A     -0.573296    23A     -0.523518    24A     -0.505230  
      25A     -0.468173    26A     -0.462462    27A     -0.453727  
      28A     -0.287965    29A     -0.065429  

    Virtual:                                                              

      30A      0.189377    31A      0.229841    32A      0.243207  
      33A      0.254711    34A      0.271471    35A      0.282566  
      36A      0.287133    37A      0.311144    38A      0.319035  
      39A      0.324510    40A      0.335101    41A      0.360253  
      42A      0.369757    43A      0.386862    44A      0.400446  
      45A      0.419245    46A      0.444901    47A      0.468300  
      48A      0.506450    49A      0.515194    50A      0.663749  
      51A      0.680057    52A      0.719644    53A      0.737097  
      54A      0.755354    55A      0.768326    56A      0.822169  
      57A      0.866374    58A      0.880514    59A      0.892762  
      60A      0.919095    61A      0.941266    62A      0.955508  
      63A      0.961034    64A      0.989684    65A      1.049929  
      66A      1.066651    67A      1.085797    68A      1.115542  
      69A      1.127847    70A      1.147161    71A      1.160279  
      72A      1.182052    73A      1.193043    74A      1.197517  
      75A      1.223926    76A      1.232567    77A      1.236306  
      78A      1.266628    79A      1.294688    80A      1.307720  
      81A      1.332696    82A      1.444377    83A      1.471131  
      84A      1.519725    85A      1.551262    86A      1.584197  
      87A      1.625417    88A      1.696644    89A      1.763610  
      90A      1.814728    91A      1.889363    92A      1.905986  
      93A      1.945561    94A      2.036987    95A      2.058870  
      96A      2.129890    97A      2.171175    98A      2.183283  
      99A      2.218510   100A      2.237716   101A      2.268633  
     102A      2.307481   103A      2.340592   104A      2.359476  
     105A      2.435796   106A      2.463088   107A      2.506721  
     108A      2.533931   109A      2.604408   110A      2.621249  
     111A      2.672208   112A      2.705848   113A      2.727322  
     114A      2.732632   115A      2.772221   116A      2.825599  
     117A      2.894862   118A      2.924401   119A      3.003131  
     120A      3.029413   121A      3.061663   122A      3.104668  
     123A      3.167759   124A      3.201820   125A      3.232721  
     126A      4.342303   127A      4.542026   128A      4.688499  
     129A      4.742492   130A      4.785275   131A      4.978448  
     132A      5.036668   133A      5.045949  

    Final Occupation by Irrep:
              A 
    DOCC [    29 ]

  Energy converged.

  @DF-RHF Final Energy:  -308.44617164080205

   => Energetics <=

    Nuclear Repulsion Energy =            386.4598206067671526
    One-Electron Energy =               -1180.4285491838870712
    Two-Electron Energy =                 485.5225569363184945
    DFT Exchange-Correlation Energy =       0.0000000000000000
    Empirical Dispersion Energy =           0.0000000000000000
    PCM Polarization Energy =               0.0000000000000000
    EFP Energy =                            0.0000000000000000
    Total Energy =                       -308.4461716408014240

    Alert: EFP and PCM quantities not currently incorporated into SCF psivars.

Properties will be evaluated at   0.000000,   0.000000,   0.000000 Bohr
  ==> Properties <==


Properties computed using the SCF density matrix

  Nuclear Dipole Moment: (a.u.)
     X:    -0.6132      Y:     1.1870      Z:    -1.1964

  Electronic Dipole Moment: (a.u.)
     X:    -0.0567      Y:    -0.5575      Z:     1.5910

  Dipole Moment: (a.u.)
     X:    -0.6699      Y:     0.6295      Z:     0.3946     Total:     1.0004

  Dipole Moment: (Debye)
     X:    -1.7027      Y:     1.6001      Z:     1.0030     Total:     2.5427


  Saving occupied orbitals to File 180.

*** tstop() called on cx1-3-2-3.cx1.hpc.ic.ac.uk at Tue Jul  5 17:09:38 2016
Module time:
	user time   =      14.18 seconds =       0.24 minutes
	system time =       0.07 seconds =       0.00 minutes
	total time  =         15 seconds =       0.25 minutes
Total time:
	user time   =      14.18 seconds =       0.24 minutes
	system time =       0.07 seconds =       0.00 minutes
	total time  =         15 seconds =       0.25 minutes


Properties will be evaluated at   0.000000,   0.000000,   0.000000 Bohr

Properties computed using the  density matrix

  Nuclear Dipole Moment: (a.u.)
     X:    -0.6132      Y:     1.1870      Z:    -1.1964

  Electronic Dipole Moment: (a.u.)
     X:    -0.0567      Y:    -0.5575      Z:     1.5910

  Dipole Moment: (a.u.)
     X:    -0.6699      Y:     0.6295      Z:     0.3946     Total:     1.0004

  Dipole Moment: (Debye)
     X:    -1.7027      Y:     1.6001      Z:     1.0030     Total:     2.5427

  Quadrupole Moment: (Debye Ang)
    XX:   -48.7915     YY:   -53.5819     ZZ:   -45.9258
    XY:    -2.0234     XZ:    -0.4251     YZ:     1.3269

  Traceless Quadrupole Moment: (Debye Ang)
    XX:     0.6416     YY:    -4.1488     ZZ:     3.5073
    XY:    -2.0234     XZ:    -0.4251     YZ:     1.3269

  Mulliken Charges: (a.u.)
   Center  Symbol    Alpha    Beta     Spin     Total
       1     H     0.61843  0.61843  0.00000 -0.23687
       2     O     3.85110  3.85110  0.00000  0.29780
       3     C     3.07445  3.07445  0.00000 -0.14889
       4     C     3.17292  3.17292  0.00000 -0.34583
       5     H     0.37845  0.37845  0.00000  0.24311
       6     H     0.50433  0.50433  0.00000 -0.00865
       7     C     3.16269  3.16269  0.00000 -0.32539
       8     H     0.40025  0.40025  0.00000  0.19950
       9     H     0.39457  0.39457  0.00000  0.21086
      10     C     3.17181  3.17181  0.00000 -0.34362
      11     H     0.41071  0.41071  0.00000  0.17858
      12     H     0.41853  0.41853  0.00000  0.16293
      13     C     3.13477  3.13477  0.00000 -0.26955
      14     H     0.41710  0.41710  0.00000  0.16580
      15     H     0.42394  0.42394  0.00000  0.15213
      16     C     3.37781  3.37781  0.00000 -0.75561
      17     H     0.41969  0.41969  0.00000  0.16061
      18     H     0.41718  0.41718  0.00000  0.16564
      19     H     0.31719  0.31719  0.00000  0.36562
      20     H     0.52607  0.52607  0.00000 -0.05214
      21     H     0.40801  0.40801  0.00000  0.18398

   Total alpha = 29.00000, Total beta = 29.00000, Total charge =  0.00000


*** PSI4 exiting successfully. Buy a developer a beer!
