    -----------------------------------------------------------------------
          Psi4: An Open-Source Ab Initio Electronic Structure Package
                              Psi4 (no tag) Driver

                          Git: Rev {detached?}  

    J. M. Turney, A. C. Simmonett, R. M. Parrish, E. G. Hohenstein,
    F. A. Evangelista, J. T. Fermann, B. J. Mintz, L. A. Burns, J. J. Wilke,
    M. L. Abrams, N. J. Russ, M. L. Leininger, C. L. Janssen, E. T. Seidl,
    W. D. Allen, H. F. Schaefer, R. A. King, E. F. Valeev, C. D. Sherrill,
    and T. D. Crawford, WIREs Comput. Mol. Sci. 2, 556-565 (2012)
    (doi: 10.1002/wcms.93)

                         Additional Contributions by
    A. E. DePrince, M. Saitow, U. Bozkaya, A. Yu. Sokolov
    -----------------------------------------------------------------------


    Psi4 started on: Tue Jul  5 16:29:20 2016

    Process ID:  28460
    PSI4DATADIR: /export131/home/mjharvey/miniconda3/share
    Memory level set to 256.000 MB

  ==> Input File <==

--------------------------------------------------------------------------
set {
	reference rhf
	basis 6-31G*
}


set_num_threads( 1 )
memory 2 gb

molecule MOL {
0 1

H	 -2.440123	 -1.779047	 0.386263
C	 -1.667057	 -1.054583	 0.222170
C	 -1.967101	 0.332530	 0.013809
C	 -0.378844	 -1.420145	 0.205187
H	 -2.992433	 0.657610	 0.021745
C	 -0.983084	 1.220153	 -0.189412
H	 -0.070690	 -2.437813	 0.352826
N	 0.640212	 -0.532897	 -0.000111
H	 -1.169413	 2.264327	 -0.348590
C	 0.418632	 0.822110	 -0.207799
C	 2.010177	 -1.032049	 0.000042
O	 1.331982	 1.588848	 -0.386996
H	 2.187698	 -1.635381	 -0.882279
H	 2.677579	 -0.189247	 -0.001871
H	 2.188882	 -1.632203	 0.884288

	symmetry c1
}
ee = energy('scf')
oeprop('DIPOLE', 'QUADRUPOLE', 'MULLIKEN_CHARGES')
f=open( 'psi4out.xyz', 'w' )
f.write( "15  " )
f.write( str(ee) + "\n" )
f.write( MOL.save_string_xyz() )
f.close()
--------------------------------------------------------------------------

  Memory set to   2.000 GiB by Python script.

*** tstart() called on cx1-3-2-3.cx1.hpc.ic.ac.uk
*** at Tue Jul  5 16:29:21 2016


         ---------------------------------------------------------
                                   SCF
            by Justin Turney, Rob Parrish, and Andy Simmonett
                              RHF Reference
                        1 Threads,   2000 MiB Core
         ---------------------------------------------------------

  ==> Geometry <==

    Molecular point group: c1
    Full point group: C1

    Geometry (in Angstrom), charge = 0, multiplicity = 1:

       Center              X                  Y                   Z               Mass       
    ------------   -----------------  -----------------  -----------------  -----------------
           H         -2.438720336140    -1.775182332686     0.434386029914     1.007825032070
           C         -1.665654336140    -1.050718332686     0.270293029914    12.000000000000
           C         -1.965698336140     0.336394667314     0.061932029914    12.000000000000
           C         -0.377441336140    -1.416280332686     0.253310029914    12.000000000000
           H         -2.991030336140     0.661474667314     0.069868029914     1.007825032070
           C         -0.981681336140     1.224017667314    -0.141288970086    12.000000000000
           H         -0.069287336140    -2.433948332686     0.400949029914     1.007825032070
           N          0.641614663860    -0.529032332686     0.048012029914    14.003074004780
           H         -1.168010336140     2.268191667314    -0.300466970086     1.007825032070
           C          0.420034663860     0.825974667314    -0.159675970086    12.000000000000
           C          2.011579663860    -1.028184332686     0.048165029914    12.000000000000
           O          1.333384663860     1.592712667314    -0.338872970086    15.994914619560
           H          2.189100663860    -1.631516332686    -0.834155970086     1.007825032070
           H          2.678981663860    -0.185382332686     0.046252029914     1.007825032070
           H          2.190284663860    -1.628338332686     0.932411029914     1.007825032070

  Running in c1 symmetry.

  Rotational constants: A =      0.11492  B =      0.07865  C =      0.04711 [cm^-1]
  Rotational constants: A =   3445.15824  B =   2358.00472  C =   1412.17512 [MHz]
  Nuclear repulsion =  357.563205449491420

  Charge       = 0
  Multiplicity = 1
  Electrons    = 58
  Nalpha       = 29
  Nbeta        = 29

  ==> Algorithm <==

  SCF Algorithm Type is DF.
  DIIS enabled.
  MOM disabled.
  Fractional occupation disabled.
  Guess Type is CORE.
  Energy threshold   = 1.00e-06
  Density threshold  = 1.00e-06
  Integral threshold = 0.00e+00

  ==> Primary Basis <==

  Basis Set: 6-31G*
    Number of shells: 62
    Number of basis function: 134
    Number of Cartesian functions: 134
    Spherical Harmonics?: false
    Max angular momentum: 2

  ==> Pre-Iterations <==

   -------------------------------------------------------
    Irrep   Nso     Nmo     Nalpha   Nbeta   Ndocc  Nsocc
   -------------------------------------------------------
     A        134     134       0       0       0       0
   -------------------------------------------------------
    Total     134     134      29      29      29       0
   -------------------------------------------------------

 OEINTS: Overlap, kinetic, potential, dipole, and quadrupole integrals
         stored in file 35.

  ==> Integral Setup <==

  ==> DFJK: Density-Fitted J/K Matrices <==

    J tasked:                  Yes
    K tasked:                  Yes
    wK tasked:                  No
    OpenMP threads:              1
    Integrals threads:           1
    Memory (MB):              1430
    Algorithm:                Core
    Integral Cache:           NONE
    Schwarz Cutoff:          1E-12
    Fitting Condition:       1E-12

   => Auxiliary Basis Set <=

  Basis Set: 
    Number of shells: 255
    Number of basis function: 823
    Number of Cartesian functions: 823
    Spherical Harmonics?: false
    Max angular momentum: 3

  Minimum eigenvalue in the overlap matrix is 7.0224385756E-04.
  Using Symmetric Orthogonalization.
  SCF Guess: Core (One-Electron) Hamiltonian.

  ==> Iterations <==

                           Total Energy        Delta E     RMS |[F,P]|

   @DF-RHF iter   1:  -284.70220033969110   -2.84702e+02   6.98893e-02 
   @DF-RHF iter   2:  -277.18218277386381    7.52002e+00   5.29846e-02 DIIS
   @DF-RHF iter   3:  -320.83364636078318   -4.36515e+01   5.12794e-02 DIIS
   @DF-RHF iter   4:  -356.19804587160786   -3.53644e+01   1.77547e-02 DIIS
   @DF-RHF iter   5:  -358.52931291578136   -2.33127e+00   1.38180e-02 DIIS
   @DF-RHF iter   6:  -360.52637314414017   -1.99706e+00   2.00247e-03 DIIS
   @DF-RHF iter   7:  -360.58285657311069   -5.64834e-02   8.13218e-04 DIIS
   @DF-RHF iter   8:  -360.59165997836396   -8.80341e-03   3.59001e-04 DIIS
   @DF-RHF iter   9:  -360.59467424549041   -3.01427e-03   1.95637e-04 DIIS
   @DF-RHF iter  10:  -360.59572101851370   -1.04677e-03   5.71139e-05 DIIS
   @DF-RHF iter  11:  -360.59581408698034   -9.30685e-05   2.11072e-05 DIIS
   @DF-RHF iter  12:  -360.59582586698525   -1.17800e-05   1.20684e-05 DIIS
   @DF-RHF iter  13:  -360.59582907973493   -3.21275e-06   5.13280e-06 DIIS
   @DF-RHF iter  14:  -360.59582970925283   -6.29518e-07   1.34283e-06 DIIS
   @DF-RHF iter  15:  -360.59582973699128   -2.77385e-08   6.00625e-07 DIIS

  ==> Post-Iterations <==

    Orbital Energies (a.u.)
    -----------------------

    Doubly Occupied:                                                      

       1A    -20.508737     2A    -15.621247     3A    -11.343545  
       4A    -11.296573     5A    -11.264350     6A    -11.260440  
       7A    -11.233794     8A    -11.229175     9A     -1.384237  
      10A     -1.281125    11A     -1.114817    12A     -1.025746  
      13A     -0.970014    14A     -0.872120    15A     -0.835335  
      16A     -0.715351    17A     -0.698487    18A     -0.660745  
      19A     -0.647993    20A     -0.621581    21A     -0.606725  
      22A     -0.572167    23A     -0.553441    24A     -0.546859  
      25A     -0.526145    26A     -0.476134    27A     -0.413595  
      28A     -0.406018    29A     -0.305266  

    Virtual:                                                              

      30A      0.108782    31A      0.182154    32A      0.230414  
      33A      0.252405    34A      0.288387    35A      0.305898  
      36A      0.306541    37A      0.326498    38A      0.334860  
      39A      0.344638    40A      0.371594    41A      0.430199  
      42A      0.462422    43A      0.479079    44A      0.506423  
      45A      0.531305    46A      0.633479    47A      0.692921  
      48A      0.699614    49A      0.737227    50A      0.746933  
      51A      0.757003    52A      0.789387    53A      0.798998  
      54A      0.806745    55A      0.822622    56A      0.852895  
      57A      0.866777    58A      0.896949    59A      0.947037  
      60A      0.958080    61A      0.971647    62A      0.979895  
      63A      1.045277    64A      1.072055    65A      1.100866  
      66A      1.110505    67A      1.118901    68A      1.143960  
      69A      1.169500    70A      1.172130    71A      1.195186  
      72A      1.207104    73A      1.231019    74A      1.250722  
      75A      1.298608    76A      1.323985    77A      1.357515  
      78A      1.406264    79A      1.428210    80A      1.481851  
      81A      1.492116    82A      1.552761    83A      1.610810  
      84A      1.631219    85A      1.691736    86A      1.706023  
      87A      1.717472    88A      1.745326    89A      1.766465  
      90A      1.768228    91A      1.936819    92A      1.994682  
      93A      2.066048    94A      2.098130    95A      2.171197  
      96A      2.177564    97A      2.204191    98A      2.240424  
      99A      2.267785   100A      2.292785   101A      2.349353  
     102A      2.358961   103A      2.371554   104A      2.434061  
     105A      2.443369   106A      2.473898   107A      2.508434  
     108A      2.556130   109A      2.619992   110A      2.647057  
     111A      2.663135   112A      2.709534   113A      2.716642  
     114A      2.734262   115A      2.921387   116A      2.945521  
     117A      3.020168   118A      3.031447   119A      3.047895  
     120A      3.096557   121A      3.167208   122A      3.203087  
     123A      3.257274   124A      3.406015   125A      3.601795  
     126A      3.820538   127A      4.446394   128A      4.504137  
     129A      4.559990   130A      4.643480   131A      4.683246  
     132A      4.769979   133A      4.916068   134A      5.160599  

    Final Occupation by Irrep:
              A 
    DOCC [    29 ]

  Energy converged.

  @DF-RHF Final Energy:  -360.59582973699128

   => Energetics <=

    Nuclear Repulsion Energy =            357.5632054494914200
    One-Electron Energy =               -1198.3348228880122406
    Two-Electron Energy =                 480.1757877015301688
    DFT Exchange-Correlation Energy =       0.0000000000000000
    Empirical Dispersion Energy =           0.0000000000000000
    PCM Polarization Energy =               0.0000000000000000
    EFP Energy =                            0.0000000000000000
    Total Energy =                       -360.5958297369906518

    Alert: EFP and PCM quantities not currently incorporated into SCF psivars.

Properties will be evaluated at   0.000000,   0.000000,   0.000000 Bohr
  ==> Properties <==


Properties computed using the SCF density matrix

  Nuclear Dipole Moment: (a.u.)
     X:     0.3714      Y:    -4.4201      Z:     0.7006

  Electronic Dipole Moment: (a.u.)
     X:    -1.1113      Y:     2.9034      Z:    -0.3991

  Dipole Moment: (a.u.)
     X:    -0.7399      Y:    -1.5167      Z:     0.3015     Total:     1.7143

  Dipole Moment: (Debye)
     X:    -1.8807      Y:    -3.8551      Z:     0.7664     Total:     4.3573


  Saving occupied orbitals to File 180.

*** tstop() called on cx1-3-2-3.cx1.hpc.ic.ac.uk at Tue Jul  5 16:29:33 2016
Module time:
	user time   =      11.69 seconds =       0.19 minutes
	system time =       0.07 seconds =       0.00 minutes
	total time  =         12 seconds =       0.20 minutes
Total time:
	user time   =      11.69 seconds =       0.19 minutes
	system time =       0.07 seconds =       0.00 minutes
	total time  =         12 seconds =       0.20 minutes


Properties will be evaluated at   0.000000,   0.000000,   0.000000 Bohr

Properties computed using the  density matrix

  Nuclear Dipole Moment: (a.u.)
     X:     0.3714      Y:    -4.4201      Z:     0.7006

  Electronic Dipole Moment: (a.u.)
     X:    -1.1113      Y:     2.9034      Z:    -0.3991

  Dipole Moment: (a.u.)
     X:    -0.7399      Y:    -1.5167      Z:     0.3015     Total:     1.7143

  Dipole Moment: (Debye)
     X:    -1.8807      Y:    -3.8551      Z:     0.7664     Total:     4.3573

  Quadrupole Moment: (Debye Ang)
    XX:   -42.9533     YY:   -46.6838     ZZ:   -49.0486
    XY:    -6.9946     XZ:     0.8805     YZ:     0.0325

  Traceless Quadrupole Moment: (Debye Ang)
    XX:     3.2753     YY:    -0.4552     ZZ:    -2.8201
    XY:    -6.9946     XZ:     0.8805     YZ:     0.0325

  Mulliken Charges: (a.u.)
   Center  Symbol    Alpha    Beta     Spin     Total
       1     H     0.39284  0.39284  0.00000  0.21433
       2     C     3.16148  3.16148  0.00000 -0.32296
       3     C     3.05825  3.05825  0.00000 -0.11651
       4     C     2.92091  2.92091  0.00000  0.15818
       5     H     0.39084  0.39084  0.00000  0.21833
       6     C     3.16978  3.16978  0.00000 -0.33957
       7     H     0.38791  0.38791  0.00000  0.22419
       8     N     3.86565  3.86565  0.00000 -0.73130
       9     H     0.38636  0.38636  0.00000  0.22729
      10     C     2.59385  2.59385  0.00000  0.81230
      11     C     3.15523  3.15523  0.00000 -0.31046
      12     O     4.32191  4.32191  0.00000 -0.64382
      13     H     0.40892  0.40892  0.00000  0.18215
      14     H     0.37433  0.37433  0.00000  0.25133
      15     H     0.41174  0.41174  0.00000  0.17652

   Total alpha = 29.00000, Total beta = 29.00000, Total charge =  0.00000


*** PSI4 exiting successfully. Buy a developer a beer!
