    -----------------------------------------------------------------------
          Psi4: An Open-Source Ab Initio Electronic Structure Package
                              Psi4 (no tag) Driver

                          Git: Rev {detached?}  

    J. M. Turney, A. C. Simmonett, R. M. Parrish, E. G. Hohenstein,
    F. A. Evangelista, J. T. Fermann, B. J. Mintz, L. A. Burns, J. J. Wilke,
    M. L. Abrams, N. J. Russ, M. L. Leininger, C. L. Janssen, E. T. Seidl,
    W. D. Allen, H. F. Schaefer, R. A. King, E. F. Valeev, C. D. Sherrill,
    and T. D. Crawford, WIREs Comput. Mol. Sci. 2, 556-565 (2012)
    (doi: 10.1002/wcms.93)

                         Additional Contributions by
    A. E. DePrince, M. Saitow, U. Bozkaya, A. Yu. Sokolov
    -----------------------------------------------------------------------


    Psi4 started on: Tue Jul  5 16:32:17 2016

    Process ID:  17317
    PSI4DATADIR: /export131/home/mjharvey/miniconda3/share
    Memory level set to 256.000 MB

  ==> Input File <==

--------------------------------------------------------------------------
set {
	reference rhf
	basis 6-31G*
}


set_num_threads( 1 )
memory 2 gb

molecule MOL {
0 1

H	 0.475516	 0.665997	 1.767423
O	 0.428306	 1.057262	 0.900582
C	 0.489431	 0.077273	 0.000046
C	 -0.764129	 -0.759190	 0.000191
O	 1.436301	 -0.082777	 -0.698801
C	 -2.038368	 0.075731	 -0.000248
H	 -0.717284	 -1.412404	 -0.866059
H	 -0.717458	 -1.411724	 0.866967
H	 -2.086483	 0.712501	 -0.875098
H	 -2.908485	 -0.571682	 -0.000042
H	 -2.086576	 0.713280	 0.874068

	symmetry c1
}
set optking {
	frozen_dihedral = ("
		2 3 4 7
	")
}

ee = energy('scf')
oeprop('DIPOLE', 'QUADRUPOLE', 'MULLIKEN_CHARGES')
f=open( 'psi4out.xyz', 'w' )
f.write( "11  " )
f.write( str(ee) + "\n" )
f.write( MOL.save_string_xyz() )
f.close()
--------------------------------------------------------------------------

  Memory set to   2.000 GiB by Python script.

*** tstart() called on cx1-3-15-3.cx1.hpc.ic.ac.uk
*** at Tue Jul  5 16:32:17 2016


         ---------------------------------------------------------
                                   SCF
            by Justin Turney, Rob Parrish, and Andy Simmonett
                              RHF Reference
                        1 Threads,   2000 MiB Core
         ---------------------------------------------------------

  ==> Geometry <==

    Molecular point group: c1
    Full point group: C1

    Geometry (in Angstrom), charge = 0, multiplicity = 1:

       Center              X                  Y                   Z               Mass       
    ------------   -----------------  -----------------  -----------------  -----------------
           H          0.557046444266     0.571471868916     1.699775193550     1.007825032070
           O          0.509836444266     0.962736868916     0.832934193550    15.994914619560
           C          0.570961444266    -0.017252131084    -0.067601806450    12.000000000000
           C         -0.682598555734    -0.853715131084    -0.067456806450    12.000000000000
           O          1.517831444266    -0.177302131084    -0.766448806450    15.994914619560
           C         -1.956837555734    -0.018794131084    -0.067895806450    12.000000000000
           H         -0.635753555734    -1.506929131084    -0.933706806450     1.007825032070
           H         -0.635927555734    -1.506249131084     0.799319193550     1.007825032070
           H         -2.004952555734     0.617975868916    -0.942745806450     1.007825032070
           H         -2.826954555734    -0.666207131084    -0.067689806450     1.007825032070
           H         -2.005045555734     0.618754868916     0.806420193550     1.007825032070

  Running in c1 symmetry.

  Rotational constants: A =      0.30883  B =      0.13445  C =      0.10456 [cm^-1]
  Rotational constants: A =   9258.45790  B =   4030.80180  C =   3134.52311 [MHz]
  Nuclear repulsion =  180.684888801645172

  Charge       = 0
  Multiplicity = 1
  Electrons    = 40
  Nalpha       = 20
  Nbeta        = 20

  ==> Algorithm <==

  SCF Algorithm Type is DF.
  DIIS enabled.
  MOM disabled.
  Fractional occupation disabled.
  Guess Type is CORE.
  Energy threshold   = 1.00e-06
  Density threshold  = 1.00e-06
  Integral threshold = 0.00e+00

  ==> Primary Basis <==

  Basis Set: 6-31G*
    Number of shells: 42
    Number of basis function: 87
    Number of Cartesian functions: 87
    Spherical Harmonics?: false
    Max angular momentum: 2

  ==> Pre-Iterations <==

   -------------------------------------------------------
    Irrep   Nso     Nmo     Nalpha   Nbeta   Ndocc  Nsocc
   -------------------------------------------------------
     A         87      87       0       0       0       0
   -------------------------------------------------------
    Total      87      87      20      20      20       0
   -------------------------------------------------------

 OEINTS: Overlap, kinetic, potential, dipole, and quadrupole integrals
         stored in file 35.

  ==> Integral Setup <==

  ==> DFJK: Density-Fitted J/K Matrices <==

    J tasked:                  Yes
    K tasked:                  Yes
    wK tasked:                  No
    OpenMP threads:              1
    Integrals threads:           1
    Memory (MB):              1430
    Algorithm:                Core
    Integral Cache:           NONE
    Schwarz Cutoff:          1E-12
    Fitting Condition:       1E-12

   => Auxiliary Basis Set <=

  Basis Set: 
    Number of shells: 174
    Number of basis function: 555
    Number of Cartesian functions: 555
    Spherical Harmonics?: false
    Max angular momentum: 3

  Minimum eigenvalue in the overlap matrix is 3.6715977862E-03.
  Using Symmetric Orthogonalization.
  SCF Guess: Core (One-Electron) Hamiltonian.

  ==> Iterations <==

                           Total Energy        Delta E     RMS |[F,P]|

   @DF-RHF iter   1:  -217.34890904351602   -2.17349e+02   8.22421e-02 
   @DF-RHF iter   2:  -157.58768161639455    5.97612e+01   9.11972e-02 DIIS
   @DF-RHF iter   3:  -250.36423840437624   -9.27766e+01   3.94384e-02 DIIS
   @DF-RHF iter   4:  -240.16474805178143    1.01995e+01   6.13585e-02 DIIS
   @DF-RHF iter   5:  -266.46086581530869   -2.62961e+01   9.64591e-03 DIIS
   @DF-RHF iter   6:  -266.69945785453729   -2.38592e-01   6.25822e-03 DIIS
   @DF-RHF iter   7:  -266.80423833118783   -1.04780e-01   1.81886e-03 DIIS
   @DF-RHF iter   8:  -266.81775481536579   -1.35165e-02   7.10670e-04 DIIS
   @DF-RHF iter   9:  -266.82016390610164   -2.40909e-03   2.16742e-04 DIIS
   @DF-RHF iter  10:  -266.82035394881228   -1.90043e-04   8.81388e-05 DIIS
   @DF-RHF iter  11:  -266.82040081135597   -4.68625e-05   2.18076e-05 DIIS
   @DF-RHF iter  12:  -266.82040498003283   -4.16868e-06   7.55274e-06 DIIS
   @DF-RHF iter  13:  -266.82040556529694   -5.85264e-07   2.74651e-06 DIIS
   @DF-RHF iter  14:  -266.82040566586693   -1.00570e-07   1.06605e-06 DIIS
   @DF-RHF iter  15:  -266.82040568455278   -1.86859e-08   3.26386e-07 DIIS

  ==> Post-Iterations <==

    Orbital Energies (a.u.)
    -----------------------

    Doubly Occupied:                                                      

       1A    -20.601962     2A    -20.559238     3A    -11.380366  
       4A    -11.246380     5A    -11.231329     6A     -1.469939  
       7A     -1.370714     8A     -1.069926     9A     -0.907123  
      10A     -0.827074    11A     -0.703129    12A     -0.678329  
      13A     -0.672498    14A     -0.615452    15A     -0.567628  
      16A     -0.552513    17A     -0.514236    18A     -0.507302  
      19A     -0.489876    20A     -0.441126  

    Virtual:                                                              

      21A      0.164178    22A      0.207099    23A      0.261638  
      24A      0.286167    25A      0.297441    26A      0.314017  
      27A      0.336454    28A      0.392493    29A      0.417144  
      30A      0.503075    31A      0.564440    32A      0.719597  
      33A      0.729291    34A      0.746096    35A      0.793299  
      36A      0.834506    37A      0.871506    38A      0.933498  
      39A      0.956567    40A      0.975364    41A      1.032595  
      42A      1.095334    43A      1.119200    44A      1.134576  
      45A      1.157517    46A      1.180047    47A      1.194781  
      48A      1.227257    49A      1.252086    50A      1.295630  
      51A      1.341098    52A      1.351534    53A      1.361921  
      54A      1.428729    55A      1.593271    56A      1.648615  
      57A      1.751144    58A      1.831831    59A      1.858004  
      60A      1.998395    61A      2.034615    62A      2.042073  
      63A      2.101272    64A      2.128278    65A      2.151840  
      66A      2.225789    67A      2.259495    68A      2.288010  
      69A      2.368921    70A      2.440975    71A      2.570349  
      72A      2.600599    73A      2.643512    74A      2.692245  
      75A      2.816556    76A      2.826568    77A      2.935264  
      78A      3.025884    79A      3.146431    80A      3.221899  
      81A      3.373828    82A      3.476125    83A      4.237081  
      84A      4.487553    85A      4.627197    86A      4.734532  
      87A      4.940579  

    Final Occupation by Irrep:
              A 
    DOCC [    20 ]

  Energy converged.

  @DF-RHF Final Energy:  -266.82040568455278

   => Energetics <=

    Nuclear Repulsion Energy =            180.6848888016451724
    One-Electron Energy =                -722.1982724788455243
    Two-Electron Energy =                 274.6929779926476840
    DFT Exchange-Correlation Energy =       0.0000000000000000
    Empirical Dispersion Energy =           0.0000000000000000
    PCM Polarization Energy =               0.0000000000000000
    EFP Energy =                            0.0000000000000000
    Total Energy =                       -266.8204056845527248

    Alert: EFP and PCM quantities not currently incorporated into SCF psivars.

Properties will be evaluated at   0.000000,   0.000000,   0.000000 Bohr
  ==> Properties <==


Properties computed using the SCF density matrix

  Nuclear Dipole Moment: (a.u.)
     X:    -7.0696      Y:    -1.7504      Z:     1.2766

  Electronic Dipole Moment: (a.u.)
     X:     6.0177      Y:     1.2376      Z:    -0.2742

  Dipole Moment: (a.u.)
     X:    -1.0520      Y:    -0.5128      Z:     1.0023     Total:     1.5409

  Dipole Moment: (Debye)
     X:    -2.6738      Y:    -1.3035      Z:     2.5476     Total:     3.9165


  Saving occupied orbitals to File 180.

*** tstop() called on cx1-3-15-3.cx1.hpc.ic.ac.uk at Tue Jul  5 16:32:21 2016
Module time:
	user time   =       3.29 seconds =       0.05 minutes
	system time =       0.01 seconds =       0.00 minutes
	total time  =          4 seconds =       0.07 minutes
Total time:
	user time   =       3.29 seconds =       0.05 minutes
	system time =       0.01 seconds =       0.00 minutes
	total time  =          4 seconds =       0.07 minutes


Properties will be evaluated at   0.000000,   0.000000,   0.000000 Bohr

Properties computed using the  density matrix

  Nuclear Dipole Moment: (a.u.)
     X:    -7.0696      Y:    -1.7504      Z:     1.2766

  Electronic Dipole Moment: (a.u.)
     X:     6.0177      Y:     1.2376      Z:    -0.2742

  Dipole Moment: (a.u.)
     X:    -1.0520      Y:    -0.5128      Z:     1.0023     Total:     1.5409

  Dipole Moment: (Debye)
     X:    -2.6738      Y:    -1.3035      Z:     2.5476     Total:     3.9165

  Quadrupole Moment: (Debye Ang)
    XX:   -34.3174     YY:   -31.6363     ZZ:   -26.7608
    XY:     0.0462     XZ:     3.6851     YZ:    -1.1350

  Traceless Quadrupole Moment: (Debye Ang)
    XX:    -3.4126     YY:    -0.7315     ZZ:     4.1440
    XY:     0.0462     XZ:     3.6851     YZ:    -1.1350

  Mulliken Charges: (a.u.)
   Center  Symbol    Alpha    Beta     Spin     Total
       1     H     0.26696  0.26696  0.00000  0.46607
       2     O     4.35019  4.35019  0.00000 -0.70038
       3     C     2.63510  2.63510  0.00000  0.72980
       4     C     3.21492  3.21492  0.00000 -0.42984
       5     O     4.25213  4.25213  0.00000 -0.50426
       6     C     3.24268  3.24268  0.00000 -0.48536
       7     H     0.39565  0.39565  0.00000  0.20869
       8     H     0.40968  0.40968  0.00000  0.18064
       9     H     0.40895  0.40895  0.00000  0.18211
      10     H     0.41242  0.41242  0.00000  0.17516
      11     H     0.41132  0.41132  0.00000  0.17736

   Total alpha = 20.00000, Total beta = 20.00000, Total charge = -0.00000


*** PSI4 exiting successfully. Buy a developer a beer!
