    -----------------------------------------------------------------------
          Psi4: An Open-Source Ab Initio Electronic Structure Package
                              Psi4 (no tag) Driver

                          Git: Rev {detached?}  

    J. M. Turney, A. C. Simmonett, R. M. Parrish, E. G. Hohenstein,
    F. A. Evangelista, J. T. Fermann, B. J. Mintz, L. A. Burns, J. J. Wilke,
    M. L. Abrams, N. J. Russ, M. L. Leininger, C. L. Janssen, E. T. Seidl,
    W. D. Allen, H. F. Schaefer, R. A. King, E. F. Valeev, C. D. Sherrill,
    and T. D. Crawford, WIREs Comput. Mol. Sci. 2, 556-565 (2012)
    (doi: 10.1002/wcms.93)

                         Additional Contributions by
    A. E. DePrince, M. Saitow, U. Bozkaya, A. Yu. Sokolov
    -----------------------------------------------------------------------


    Psi4 started on: Tue Jul  5 16:33:38 2016

    Process ID:   9823
    PSI4DATADIR: /export131/home/mjharvey/miniconda3/share
    Memory level set to 256.000 MB

  ==> Input File <==

--------------------------------------------------------------------------
set {
	reference rhf
	basis 6-31G*
}


set_num_threads( 1 )
memory 2 gb

molecule MOL {
0 1

H	 -3.269016	 -0.876744	 0.468090
C	 -2.809304	 0.000122	 0.025886
N	 -1.391456	 0.000019	 0.300661
H	 -3.037557	 -0.000063	 -1.044252
H	 -3.269223	 0.876956	 0.468000
C	 -1.102565	 0.233174	 1.702078
C	 -0.668560	 0.937463	 -0.536255
H	 -1.455848	 1.216532	 2.027200
H	 -1.619847	 -0.514764	 2.294168
C	 0.392679	 0.132274	 1.960211
H	 -0.869345	 0.703172	 -1.576616
H	 -0.993112	 1.967445	 -0.359304
C	 0.826684	 0.836563	 -0.278122
H	 0.593464	 0.366564	 3.000571
H	 0.717231	 -0.897708	 1.783259
N	 1.115575	 1.069718	 1.123295
H	 1.343966	 1.584501	 -0.870212
H	 1.179967	 -0.146795	 -0.603244
C	 2.533423	 1.069616	 1.398070
H	 2.705163	 1.309153	 2.441574
H	 3.024333	 1.826669	 0.796651
H	 3.009742	 0.107218	 1.187818

	symmetry c1
}
ee = energy('scf')
oeprop('DIPOLE', 'QUADRUPOLE', 'MULLIKEN_CHARGES')
f=open( 'psi4out.xyz', 'w' )
f.write( "22  " )
f.write( str(ee) + "\n" )
f.write( MOL.save_string_xyz() )
f.close()
--------------------------------------------------------------------------

  Memory set to   2.000 GiB by Python script.

*** tstart() called on cx1-3-4-4.cx1.hpc.ic.ac.uk
*** at Tue Jul  5 16:33:38 2016


         ---------------------------------------------------------
                                   SCF
            by Justin Turney, Rob Parrish, and Andy Simmonett
                              RHF Reference
                        1 Threads,   2000 MiB Core
         ---------------------------------------------------------

  ==> Geometry <==

    Molecular point group: c1
    Full point group: C1

    Geometry (in Angstrom), charge = 0, multiplicity = 1:

       Center              X                  Y                   Z               Mass       
    ------------   -----------------  -----------------  -----------------  -----------------
           H         -3.130996766221    -1.411912676677    -0.244294351082     1.007825032070
           C         -2.671284766221    -0.535046676677    -0.686498351082    12.000000000000
           N         -1.253436766221    -0.535149676677    -0.411723351082    14.003074004780
           H         -2.899537766221    -0.535231676677    -1.756636351082     1.007825032070
           H         -3.131203766221     0.341787323323    -0.244384351082     1.007825032070
           C         -0.964545766221    -0.301994676677     0.989693648918    12.000000000000
           C         -0.530540766221     0.402294323323    -1.248639351082    12.000000000000
           H         -1.317828766221     0.681363323323     1.314815648918     1.007825032070
           H         -1.481827766221    -1.049932676677     1.581783648918     1.007825032070
           C          0.530698233779    -0.402894676677     1.247826648918    12.000000000000
           H         -0.731325766221     0.168003323323    -2.289000351082     1.007825032070
           H         -0.855092766221     1.432276323323    -1.071688351082     1.007825032070
           C          0.964703233779     0.301394323323    -0.990506351082    12.000000000000
           H          0.731483233779    -0.168604676677     2.288186648918     1.007825032070
           H          0.855250233779    -1.432876676677     1.070874648918     1.007825032070
           N          1.253594233779     0.534549323323     0.410910648918    14.003074004780
           H          1.481985233779     1.049332323323    -1.582596351082     1.007825032070
           H          1.317986233779    -0.681963676677    -1.315628351082     1.007825032070
           C          2.671442233779     0.534447323323     0.685685648918    12.000000000000
           H          2.843182233779     0.773984323323     1.729189648918     1.007825032070
           H          3.162352233779     1.291500323323     0.084266648918     1.007825032070
           H          3.147761233779    -0.427950676677     0.475433648918     1.007825032070

  Running in c1 symmetry.

  Rotational constants: A =      0.15408  B =      0.04760  C =      0.03875 [cm^-1]
  Rotational constants: A =   4619.05673  B =   1426.92672  C =   1161.68262 [MHz]
  Nuclear repulsion =  421.476737423623263

  Charge       = 0
  Multiplicity = 1
  Electrons    = 64
  Nalpha       = 32
  Nbeta        = 32

  ==> Algorithm <==

  SCF Algorithm Type is DF.
  DIIS enabled.
  MOM disabled.
  Fractional occupation disabled.
  Guess Type is CORE.
  Energy threshold   = 1.00e-06
  Density threshold  = 1.00e-06
  Integral threshold = 0.00e+00

  ==> Primary Basis <==

  Basis Set: 6-31G*
    Number of shells: 76
    Number of basis function: 148
    Number of Cartesian functions: 148
    Spherical Harmonics?: false
    Max angular momentum: 2

  ==> Pre-Iterations <==

   -------------------------------------------------------
    Irrep   Nso     Nmo     Nalpha   Nbeta   Ndocc  Nsocc
   -------------------------------------------------------
     A        148     148       0       0       0       0
   -------------------------------------------------------
    Total     148     148      32      32      32       0
   -------------------------------------------------------

 OEINTS: Overlap, kinetic, potential, dipole, and quadrupole integrals
         stored in file 35.

  ==> Integral Setup <==

  ==> DFJK: Density-Fitted J/K Matrices <==

    J tasked:                  Yes
    K tasked:                  Yes
    wK tasked:                  No
    OpenMP threads:              1
    Integrals threads:           1
    Memory (MB):              1430
    Algorithm:                Core
    Integral Cache:           NONE
    Schwarz Cutoff:          1E-12
    Fitting Condition:       1E-12

   => Auxiliary Basis Set <=

  Basis Set: 
    Number of shells: 318
    Number of basis function: 998
    Number of Cartesian functions: 998
    Spherical Harmonics?: false
    Max angular momentum: 3

  Minimum eigenvalue in the overlap matrix is 3.0065547652E-03.
  Using Symmetric Orthogonalization.
  SCF Guess: Core (One-Electron) Hamiltonian.

  ==> Iterations <==

                           Total Energy        Delta E     RMS |[F,P]|

   @DF-RHF iter   1:  -244.98428516876879   -2.44984e+02   7.20565e-02 
   @DF-RHF iter   2:  -193.56642781633354    5.14179e+01   5.55730e-02 DIIS
   @DF-RHF iter   3:  -303.08757712114539   -1.09521e+02   4.23244e-02 DIIS
   @DF-RHF iter   4:  -342.42348775226515   -3.93359e+01   1.30848e-02 DIIS
   @DF-RHF iter   5:  -344.00529406560190   -1.58181e+00   4.49029e-03 DIIS
   @DF-RHF iter   6:  -344.21273007266041   -2.07436e-01   1.00617e-03 DIIS
   @DF-RHF iter   7:  -344.22783806421285   -1.51080e-02   2.74655e-04 DIIS
   @DF-RHF iter   8:  -344.22876374062196   -9.25676e-04   1.56822e-04 DIIS
   @DF-RHF iter   9:  -344.22904777783356   -2.84037e-04   5.96472e-05 DIIS
   @DF-RHF iter  10:  -344.22909479907946   -4.70212e-05   8.90977e-06 DIIS
   @DF-RHF iter  11:  -344.22909640912030   -1.61004e-06   2.50210e-06 DIIS
   @DF-RHF iter  12:  -344.22909650564350   -9.65232e-08   7.59146e-07 DIIS

  ==> Post-Iterations <==

    Orbital Energies (a.u.)
    -----------------------

    Doubly Occupied:                                                      

       1A    -15.541838     2A    -15.540960     3A    -11.239219  
       4A    -11.238507     5A    -11.238414     6A    -11.237788  
       7A    -11.236053     8A    -11.235894     9A     -1.255212  
      10A     -1.204207    11A     -1.024610    12A     -0.991650  
      13A     -0.911211    14A     -0.866840    15A     -0.835296  
      16A     -0.755135    17A     -0.665287    18A     -0.637043  
      19A     -0.629608    20A     -0.626167    21A     -0.622209  
      22A     -0.580092    23A     -0.549409    24A     -0.547745  
      25A     -0.542078    26A     -0.517528    27A     -0.496512  
      28A     -0.490269    29A     -0.464858    30A     -0.455977  
      31A     -0.349637    32A     -0.343890  

    Virtual:                                                              

      33A      0.233832    34A      0.241331    35A      0.272926  
      36A      0.287633    37A      0.293302    38A      0.306445  
      39A      0.321099    40A      0.327574    41A      0.329656  
      42A      0.334302    43A      0.340621    44A      0.347874  
      45A      0.353422    46A      0.358612    47A      0.373441  
      48A      0.391680    49A      0.430613    50A      0.454360  
      51A      0.464724    52A      0.468074    53A      0.475844  
      54A      0.488227    55A      0.705149    56A      0.735495  
      57A      0.748412    58A      0.758136    59A      0.785949  
      60A      0.797541    61A      0.821269    62A      0.849367  
      63A      0.858218    64A      0.860233    65A      0.920823  
      66A      0.935231    67A      0.987321    68A      0.991455  
      69A      1.001063    70A      1.004354    71A      1.055610  
      72A      1.104704    73A      1.113455    74A      1.119675  
      75A      1.124404    76A      1.139231    77A      1.159343  
      78A      1.163090    79A      1.167494    80A      1.187287  
      81A      1.188427    82A      1.195021    83A      1.198582  
      84A      1.212134    85A      1.241612    86A      1.246296  
      87A      1.249790    88A      1.262731    89A      1.287459  
      90A      1.301087    91A      1.395889    92A      1.409059  
      93A      1.535029    94A      1.559281    95A      1.638726  
      96A      1.650061    97A      1.663952    98A      1.693169  
      99A      1.729329   100A      1.768169   101A      1.811640  
     102A      1.917515   103A      2.000516   104A      2.056977  
     105A      2.101841   106A      2.141905   107A      2.175116  
     108A      2.196125   109A      2.218872   110A      2.237902  
     111A      2.315304   112A      2.318382   113A      2.328245  
     114A      2.355624   115A      2.395321   116A      2.422053  
     117A      2.428888   118A      2.438829   119A      2.458512  
     120A      2.463690   121A      2.546973   122A      2.581251  
     123A      2.584506   124A      2.597350   125A      2.634951  
     126A      2.665450   127A      2.671562   128A      2.690015  
     129A      2.799690   130A      2.804167   131A      2.874325  
     132A      2.931774   133A      2.977263   134A      2.981351  
     135A      3.150773   136A      3.179559   137A      3.182637  
     138A      3.201767   139A      3.262083   140A      3.316475  
     141A      4.485354   142A      4.523388   143A      4.673958  
     144A      4.701541   145A      4.710265   146A      4.822689  
     147A      4.969954   148A      4.980778  

    Final Occupation by Irrep:
              A 
    DOCC [    32 ]

  Energy converged.

  @DF-RHF Final Energy:  -344.22909650564350

   => Energetics <=

    Nuclear Repulsion Energy =            421.4767374236232627
    One-Electron Energy =               -1301.6689744789623546
    Two-Electron Energy =                 535.9631405496955949
    DFT Exchange-Correlation Energy =       0.0000000000000000
    Empirical Dispersion Energy =           0.0000000000000000
    PCM Polarization Energy =               0.0000000000000000
    EFP Energy =                            0.0000000000000000
    Total Energy =                       -344.2290965056434970

    Alert: EFP and PCM quantities not currently incorporated into SCF psivars.

Properties will be evaluated at   0.000000,   0.000000,   0.000000 Bohr
  ==> Properties <==


Properties computed using the SCF density matrix

  Nuclear Dipole Moment: (a.u.)
     X:    -0.0073      Y:     0.0279      Z:     0.0378

  Electronic Dipole Moment: (a.u.)
     X:    -0.0001      Y:    -0.0218      Z:    -0.0465

  Dipole Moment: (a.u.)
     X:    -0.0074      Y:     0.0061      Z:    -0.0087     Total:     0.0129

  Dipole Moment: (Debye)
     X:    -0.0189      Y:     0.0155      Z:    -0.0221     Total:     0.0329


  Saving occupied orbitals to File 180.

*** tstop() called on cx1-3-4-4.cx1.hpc.ic.ac.uk at Tue Jul  5 16:33:54 2016
Module time:
	user time   =      15.29 seconds =       0.25 minutes
	system time =       0.15 seconds =       0.00 minutes
	total time  =         16 seconds =       0.27 minutes
Total time:
	user time   =      15.29 seconds =       0.25 minutes
	system time =       0.15 seconds =       0.00 minutes
	total time  =         16 seconds =       0.27 minutes


Properties will be evaluated at   0.000000,   0.000000,   0.000000 Bohr

Properties computed using the  density matrix

  Nuclear Dipole Moment: (a.u.)
     X:    -0.0073      Y:     0.0279      Z:     0.0378

  Electronic Dipole Moment: (a.u.)
     X:    -0.0001      Y:    -0.0218      Z:    -0.0465

  Dipole Moment: (a.u.)
     X:    -0.0074      Y:     0.0061      Z:    -0.0087     Total:     0.0129

  Dipole Moment: (Debye)
     X:    -0.0189      Y:     0.0155      Z:    -0.0221     Total:     0.0329

  Quadrupole Moment: (Debye Ang)
    XX:   -48.7518     YY:   -54.8481     ZZ:   -49.1947
    XY:     0.1564     XZ:     0.2382     YZ:    -1.9135

  Traceless Quadrupole Moment: (Debye Ang)
    XX:     2.1797     YY:    -3.9166     ZZ:     1.7369
    XY:     0.1564     XZ:     0.2382     YZ:    -1.9135

  Mulliken Charges: (a.u.)
   Center  Symbol    Alpha    Beta     Spin     Total
       1     H     0.41591  0.41591  0.00000  0.16818
       2     C     3.14110  3.14110  0.00000 -0.28220
       3     N     3.78684  3.78684  0.00000 -0.57369
       4     H     0.41740  0.41740  0.00000  0.16520
       5     H     0.43229  0.43229  0.00000  0.13542
       6     C     3.05718  3.05718  0.00000 -0.11435
       7     C     3.05654  3.05654  0.00000 -0.11309
       8     H     0.42828  0.42828  0.00000  0.14344
       9     H     0.41761  0.41761  0.00000  0.16479
      10     C     3.05612  3.05612  0.00000 -0.11225
      11     H     0.41786  0.41786  0.00000  0.16427
      12     H     0.42927  0.42927  0.00000  0.14146
      13     C     3.05640  3.05640  0.00000 -0.11279
      14     H     0.41791  0.41791  0.00000  0.16418
      15     H     0.42832  0.42832  0.00000  0.14335
      16     N     3.78709  3.78709  0.00000 -0.57419
      17     H     0.41813  0.41813  0.00000  0.16375
      18     H     0.42851  0.42851  0.00000  0.14298
      19     C     3.14029  3.14029  0.00000 -0.28057
      20     H     0.41681  0.41681  0.00000  0.16638
      21     H     0.41673  0.41673  0.00000  0.16655
      22     H     0.43341  0.43341  0.00000  0.13319

   Total alpha = 32.00000, Total beta = 32.00000, Total charge =  0.00000


*** PSI4 exiting successfully. Buy a developer a beer!
