    -----------------------------------------------------------------------
          Psi4: An Open-Source Ab Initio Electronic Structure Package
                              Psi4 (no tag) Driver

                          Git: Rev {detached?}  

    J. M. Turney, A. C. Simmonett, R. M. Parrish, E. G. Hohenstein,
    F. A. Evangelista, J. T. Fermann, B. J. Mintz, L. A. Burns, J. J. Wilke,
    M. L. Abrams, N. J. Russ, M. L. Leininger, C. L. Janssen, E. T. Seidl,
    W. D. Allen, H. F. Schaefer, R. A. King, E. F. Valeev, C. D. Sherrill,
    and T. D. Crawford, WIREs Comput. Mol. Sci. 2, 556-565 (2012)
    (doi: 10.1002/wcms.93)

                         Additional Contributions by
    A. E. DePrince, M. Saitow, U. Bozkaya, A. Yu. Sokolov
    -----------------------------------------------------------------------


    Psi4 started on: Tue Jul  5 16:40:34 2016

    Process ID:  15336
    PSI4DATADIR: /export131/home/mjharvey/miniconda3/share
    Memory level set to 256.000 MB

  ==> Input File <==

--------------------------------------------------------------------------
set {
	reference rhf
	basis 6-31G*
}


set_num_threads( 1 )
memory 2 gb

molecule MOL {
0 1

H	 -3.243284	 -0.574645	 0.476233
C	 -2.559858	 0.228885	 0.743458
O	 -1.257569	 -0.057642	 0.346868
H	 -2.864897	 1.132053	 0.233182
H	 -2.624396	 0.393546	 1.818237
C	 -0.721695	 -1.201654	 0.932808
C	 0.644560	 -1.469825	 0.346602
H	 -0.628789	 -1.066106	 2.011089
H	 -1.362704	 -2.063161	 0.756975
O	 1.392611	 -0.295398	 0.366430
H	 1.135236	 -2.251079	 0.923565
H	 0.531216	 -1.828675	 -0.677152
C	 2.706965	 -0.449871	 -0.062409
H	 2.756559	 -0.644779	 -1.131878
H	 3.305899	 0.433456	 0.155466
H	 3.125548	 -1.294566	 0.467107

	symmetry c1
}
set optking {
	frozen_dihedral = ("
		3 6 7 11,
		2 3 6 7
	")
}

ee = energy('scf')
oeprop('DIPOLE', 'QUADRUPOLE', 'MULLIKEN_CHARGES')
f=open( 'psi4out.xyz', 'w' )
f.write( "16  " )
f.write( str(ee) + "\n" )
f.write( MOL.save_string_xyz() )
f.close()
--------------------------------------------------------------------------

  Memory set to   2.000 GiB by Python script.

*** tstart() called on cx1-3-2-2.cx1.hpc.ic.ac.uk
*** at Tue Jul  5 16:40:34 2016


         ---------------------------------------------------------
                                   SCF
            by Justin Turney, Rob Parrish, and Andy Simmonett
                              RHF Reference
                        1 Threads,   2000 MiB Core
         ---------------------------------------------------------

  ==> Geometry <==

    Molecular point group: c1
    Full point group: C1

    Geometry (in Angstrom), charge = 0, multiplicity = 1:

       Center              X                  Y                   Z               Mass       
    ------------   -----------------  -----------------  -----------------  -----------------
           H         -3.278047232053    -0.039703718944     0.032048391945     1.007825032070
           C         -2.594621232053     0.763826281056     0.299273391945    12.000000000000
           O         -1.292332232053     0.477299281056    -0.097316608055    15.994914619560
           H         -2.899660232053     1.666994281056    -0.211002608055     1.007825032070
           H         -2.659159232053     0.928487281056     1.374052391945     1.007825032070
           C         -0.756458232053    -0.666712718944     0.488623391945    12.000000000000
           C          0.609796767947    -0.934883718944    -0.097582608055    12.000000000000
           H         -0.663552232053    -0.531164718944     1.566904391945     1.007825032070
           H         -1.397467232053    -1.528219718944     0.312790391945     1.007825032070
           O          1.357847767947     0.239543281056    -0.077754608055    15.994914619560
           H          1.100472767947    -1.716137718944     0.479380391945     1.007825032070
           H          0.496452767947    -1.293733718944    -1.121336608055     1.007825032070
           C          2.672201767947     0.085070281056    -0.506593608055    12.000000000000
           H          2.721795767947    -0.109837718944    -1.576062608055     1.007825032070
           H          3.271135767947     0.968397281056    -0.288718608055     1.007825032070
           H          3.090784767947    -0.759624718944     0.022922391945     1.007825032070

  Running in c1 symmetry.

  Rotational constants: A =      0.36547  B =      0.05423  C =      0.04968 [cm^-1]
  Rotational constants: A =  10956.38015  B =   1625.70362  C =   1489.36560 [MHz]
  Nuclear repulsion =  260.079920154702279

  Charge       = 0
  Multiplicity = 1
  Electrons    = 50
  Nalpha       = 25
  Nbeta        = 25

  ==> Algorithm <==

  SCF Algorithm Type is DF.
  DIIS enabled.
  MOM disabled.
  Fractional occupation disabled.
  Guess Type is CORE.
  Energy threshold   = 1.00e-06
  Density threshold  = 1.00e-06
  Integral threshold = 0.00e+00

  ==> Primary Basis <==

  Basis Set: 6-31G*
    Number of shells: 56
    Number of basis function: 110
    Number of Cartesian functions: 110
    Spherical Harmonics?: false
    Max angular momentum: 2

  ==> Pre-Iterations <==

   -------------------------------------------------------
    Irrep   Nso     Nmo     Nalpha   Nbeta   Ndocc  Nsocc
   -------------------------------------------------------
     A        110     110       0       0       0       0
   -------------------------------------------------------
    Total     110     110      25      25      25       0
   -------------------------------------------------------

 OEINTS: Overlap, kinetic, potential, dipole, and quadrupole integrals
         stored in file 35.

  ==> Integral Setup <==

  ==> DFJK: Density-Fitted J/K Matrices <==

    J tasked:                  Yes
    K tasked:                  Yes
    wK tasked:                  No
    OpenMP threads:              1
    Integrals threads:           1
    Memory (MB):              1430
    Algorithm:                Core
    Integral Cache:           NONE
    Schwarz Cutoff:          1E-12
    Fitting Condition:       1E-12

   => Auxiliary Basis Set <=

  Basis Set: 
    Number of shells: 234
    Number of basis function: 736
    Number of Cartesian functions: 736
    Spherical Harmonics?: false
    Max angular momentum: 3

  Minimum eigenvalue in the overlap matrix is 3.9250548021E-03.
  Using Symmetric Orthogonalization.
  SCF Guess: Core (One-Electron) Hamiltonian.

  ==> Iterations <==

                           Total Energy        Delta E     RMS |[F,P]|

   @DF-RHF iter   1:  -241.13372792627723   -2.41134e+02   7.74405e-02 
   @DF-RHF iter   2:  -212.97346748812362    2.81603e+01   6.17703e-02 DIIS
   @DF-RHF iter   3:  -269.84739156253175   -5.68739e+01   5.21759e-02 DIIS
   @DF-RHF iter   4:  -305.21122908686101   -3.53638e+01   1.80432e-02 DIIS
   @DF-RHF iter   5:  -306.63790053418694   -1.42667e+00   7.73657e-03 DIIS
   @DF-RHF iter   6:  -306.95300363030941   -3.15103e-01   1.57003e-03 DIIS
   @DF-RHF iter   7:  -306.97124741640977   -1.82438e-02   4.08530e-04 DIIS
   @DF-RHF iter   8:  -306.97258602664550   -1.33861e-03   1.67030e-04 DIIS
   @DF-RHF iter   9:  -306.97278308893391   -1.97062e-04   6.84245e-05 DIIS
   @DF-RHF iter  10:  -306.97281757163245   -3.44827e-05   2.28036e-05 DIIS
   @DF-RHF iter  11:  -306.97282140277565   -3.83114e-06   5.15011e-06 DIIS
   @DF-RHF iter  12:  -306.97282158700585   -1.84230e-07   1.47424e-06 DIIS
   @DF-RHF iter  13:  -306.97282160387562   -1.68698e-08   3.92910e-07 DIIS

  ==> Post-Iterations <==

    Orbital Energies (a.u.)
    -----------------------

    Doubly Occupied:                                                      

       1A    -20.551833     2A    -20.550572     3A    -11.270172  
       4A    -11.269396     5A    -11.263004     6A    -11.262590  
       7A     -1.388054     8A     -1.367079     9A     -1.030457  
      10A     -0.933003    11A     -0.895837    12A     -0.820518  
      13A     -0.687149    14A     -0.678018    15A     -0.655989  
      16A     -0.639544    17A     -0.621035    18A     -0.594988  
      19A     -0.564711    20A     -0.525657    21A     -0.507901  
      22A     -0.471348    23A     -0.466729    24A     -0.414185  
      25A     -0.409734  

    Virtual:                                                              

      26A      0.233209    27A      0.249736    28A      0.285683  
      29A      0.298991    30A      0.304153    31A      0.316001  
      32A      0.330559    33A      0.333233    34A      0.340313  
      35A      0.352084    36A      0.363590    37A      0.365377  
      38A      0.444198    39A      0.452365    40A      0.467016  
      41A      0.710137    42A      0.754427    43A      0.771103  
      44A      0.777623    45A      0.783726    46A      0.819139  
      47A      0.823034    48A      0.828926    49A      0.912426  
      50A      0.928499    51A      0.994849    52A      1.030730  
      53A      1.061434    54A      1.103516    55A      1.119477  
      56A      1.140008    57A      1.153898    58A      1.162095  
      59A      1.168264    60A      1.181614    61A      1.203763  
      62A      1.231750    63A      1.245416    64A      1.255160  
      65A      1.331581    66A      1.348378    67A      1.407760  
      68A      1.411927    69A      1.423736    70A      1.601109  
      71A      1.648355    72A      1.678585    73A      1.698589  
      74A      1.726109    75A      1.783638    76A      1.831814  
      77A      1.899603    78A      1.908170    79A      2.028825  
      80A      2.107147    81A      2.226405    82A      2.236137  
      83A      2.280520    84A      2.390726    85A      2.411005  
      86A      2.424564    87A      2.459588    88A      2.474293  
      89A      2.479865    90A      2.509364    91A      2.546477  
      92A      2.590749    93A      2.609108    94A      2.669220  
      95A      2.708767    96A      2.801110    97A      2.865469  
      98A      2.885136    99A      2.918315   100A      3.015367  
     101A      3.164480   102A      3.249670   103A      3.290338  
     104A      3.390451   105A      4.323263   106A      4.430559  
     107A      4.638630   108A      4.679230   109A      4.692627  
     110A      4.894323  

    Final Occupation by Irrep:
              A 
    DOCC [    25 ]

  Energy converged.

  @DF-RHF Final Energy:  -306.97282160387562

   => Energetics <=

    Nuclear Repulsion Energy =            260.0799201547022790
    One-Electron Energy =                -934.4263954293013512
    Two-Electron Energy =                 367.3736536707233427
    DFT Exchange-Correlation Energy =       0.0000000000000000
    Empirical Dispersion Energy =           0.0000000000000000
    PCM Polarization Energy =               0.0000000000000000
    EFP Energy =                            0.0000000000000000
    Total Energy =                       -306.9728216038756727

    Alert: EFP and PCM quantities not currently incorporated into SCF psivars.

Properties will be evaluated at   0.000000,   0.000000,   0.000000 Bohr
  ==> Properties <==


Properties computed using the SCF density matrix

  Nuclear Dipole Moment: (a.u.)
     X:    -0.2033      Y:    -2.2601      Z:     0.5532

  Electronic Dipole Moment: (a.u.)
     X:     0.1412      Y:     1.5156      Z:    -0.3662

  Dipole Moment: (a.u.)
     X:    -0.0621      Y:    -0.7445      Z:     0.1869     Total:     0.7702

  Dipole Moment: (Debye)
     X:    -0.1579      Y:    -1.8924      Z:     0.4751     Total:     1.9575


  Saving occupied orbitals to File 180.

*** tstop() called on cx1-3-2-2.cx1.hpc.ic.ac.uk at Tue Jul  5 16:40:41 2016
Module time:
	user time   =       6.55 seconds =       0.11 minutes
	system time =       0.04 seconds =       0.00 minutes
	total time  =          7 seconds =       0.12 minutes
Total time:
	user time   =       6.55 seconds =       0.11 minutes
	system time =       0.04 seconds =       0.00 minutes
	total time  =          7 seconds =       0.12 minutes


Properties will be evaluated at   0.000000,   0.000000,   0.000000 Bohr

Properties computed using the  density matrix

  Nuclear Dipole Moment: (a.u.)
     X:    -0.2033      Y:    -2.2601      Z:     0.5532

  Electronic Dipole Moment: (a.u.)
     X:     0.1412      Y:     1.5156      Z:    -0.3662

  Dipole Moment: (a.u.)
     X:    -0.0621      Y:    -0.7445      Z:     0.1869     Total:     0.7702

  Dipole Moment: (Debye)
     X:    -0.1579      Y:    -1.8924      Z:     0.4751     Total:     1.9575

  Quadrupole Moment: (Debye Ang)
    XX:   -30.4996     YY:   -37.3826     ZZ:   -38.0721
    XY:    -1.1206     XZ:    -2.2417     YZ:     0.0587

  Traceless Quadrupole Moment: (Debye Ang)
    XX:     4.8185     YY:    -2.0645     ZZ:    -2.7540
    XY:    -1.1206     XZ:    -2.2417     YZ:     0.0587

  Mulliken Charges: (a.u.)
   Center  Symbol    Alpha    Beta     Spin     Total
       1     H     0.43209  0.43209  0.00000  0.13583
       2     C     3.07933  3.07933  0.00000 -0.15865
       3     O     4.29554  4.29554  0.00000 -0.59108
       4     H     0.41073  0.41073  0.00000  0.17853
       5     H     0.42992  0.42992  0.00000  0.14017
       6     C     2.99297  2.99297  0.00000  0.01407
       7     C     2.99340  2.99340  0.00000  0.01320
       8     H     0.42721  0.42721  0.00000  0.14558
       9     H     0.43172  0.43172  0.00000  0.13656
      10     O     4.29686  4.29686  0.00000 -0.59372
      11     H     0.43162  0.43162  0.00000  0.13676
      12     H     0.42730  0.42730  0.00000  0.14540
      13     C     3.07773  3.07773  0.00000 -0.15546
      14     H     0.42850  0.42850  0.00000  0.14300
      15     H     0.41178  0.41178  0.00000  0.17644
      16     H     0.43331  0.43331  0.00000  0.13338

   Total alpha = 25.00000, Total beta = 25.00000, Total charge = -0.00000


*** PSI4 exiting successfully. Buy a developer a beer!
