    -----------------------------------------------------------------------
          Psi4: An Open-Source Ab Initio Electronic Structure Package
                              Psi4 (no tag) Driver

                          Git: Rev {detached?}  

    J. M. Turney, A. C. Simmonett, R. M. Parrish, E. G. Hohenstein,
    F. A. Evangelista, J. T. Fermann, B. J. Mintz, L. A. Burns, J. J. Wilke,
    M. L. Abrams, N. J. Russ, M. L. Leininger, C. L. Janssen, E. T. Seidl,
    W. D. Allen, H. F. Schaefer, R. A. King, E. F. Valeev, C. D. Sherrill,
    and T. D. Crawford, WIREs Comput. Mol. Sci. 2, 556-565 (2012)
    (doi: 10.1002/wcms.93)

                         Additional Contributions by
    A. E. DePrince, M. Saitow, U. Bozkaya, A. Yu. Sokolov
    -----------------------------------------------------------------------


    Psi4 started on: Tue Jul  5 16:28:38 2016

    Process ID:  13579
    PSI4DATADIR: /export131/home/mjharvey/miniconda3/share
    Memory level set to 256.000 MB

  ==> Input File <==

--------------------------------------------------------------------------
set {
	reference rhf
	basis 6-31G*
}


set_num_threads( 1 )
memory 2 gb

molecule MOL {
0 1

O	 2.020469	 1.768402	 0.580349
C	 0.939796	 1.446423	 0.164204
C	 -0.134850	 2.494824	 -0.055063
N	 0.623947	 0.147590	 -0.102813
H	 -1.016071	 2.291985	 0.543592
H	 0.279826	 3.447681	 0.236747
H	 -0.438490	 2.543326	 -1.095271
C	 1.665360	 -0.855771	 0.000151
C	 -0.568074	 -0.267373	 -0.809308
H	 2.465253	 -0.618490	 -0.692587
H	 1.257730	 -1.821716	 -0.242189
H	 2.081488	 -0.891645	 1.004627
H	 -0.877040	 -1.239054	 -0.442682
H	 -1.384956	 0.417488	 -0.646202
H	 -0.396463	 -0.352296	 -1.880826

	symmetry c1
}
set optking {
	frozen_dihedral = ("
		8 4 2 3
	")
}

ee = energy('scf')
oeprop('DIPOLE', 'QUADRUPOLE', 'MULLIKEN_CHARGES')
f=open( 'psi4out.xyz', 'w' )
f.write( "15  " )
f.write( str(ee) + "\n" )
f.write( MOL.save_string_xyz() )
f.close()
--------------------------------------------------------------------------

  Memory set to   2.000 GiB by Python script.

*** tstart() called on cx1-3-2-1.cx1.hpc.ic.ac.uk
*** at Tue Jul  5 16:28:38 2016


         ---------------------------------------------------------
                                   SCF
            by Justin Turney, Rob Parrish, and Andy Simmonett
                              RHF Reference
                        1 Threads,   2000 MiB Core
         ---------------------------------------------------------

  ==> Geometry <==

    Molecular point group: c1
    Full point group: C1

    Geometry (in Angstrom), charge = 0, multiplicity = 1:

       Center              X                  Y                   Z               Mass       
    ------------   -----------------  -----------------  -----------------  -----------------
           O          1.263961691459     0.987680014038     0.623960730306    15.994914619560
           C          0.183288691459     0.665701014038     0.207815730306    12.000000000000
           C         -0.891357308541     1.714102014038    -0.011451269694    12.000000000000
           N         -0.132560308541    -0.633131985962    -0.059201269694    14.003074004780
           H         -1.772578308541     1.511263014038     0.587203730306     1.007825032070
           H         -0.476681308541     2.666959014038     0.280358730306     1.007825032070
           H         -1.194997308541     1.762604014038    -1.051659269694     1.007825032070
           C          0.908852691459    -1.636492985962     0.043762730306    12.000000000000
           C         -1.324581308541    -1.048094985962    -0.765696269694    12.000000000000
           H          1.708745691459    -1.399211985962    -0.648975269694     1.007825032070
           H          0.501222691459    -2.602437985962    -0.198577269694     1.007825032070
           H          1.324980691459    -1.672366985962     1.048238730306     1.007825032070
           H         -1.633547308541    -2.019775985962    -0.399070269694     1.007825032070
           H         -2.141463308541    -0.363233985962    -0.602590269694     1.007825032070
           H         -1.152970308541    -1.133017985962    -1.837214269694     1.007825032070

  Running in c1 symmetry.

  Rotational constants: A =      0.16609  B =      0.11521  C =      0.07082 [cm^-1]
  Rotational constants: A =   4979.37477  B =   3453.92589  C =   2123.24763 [MHz]
  Nuclear repulsion =  252.325229938243638

  Charge       = 0
  Multiplicity = 1
  Electrons    = 48
  Nalpha       = 24
  Nbeta        = 24

  ==> Algorithm <==

  SCF Algorithm Type is DF.
  DIIS enabled.
  MOM disabled.
  Fractional occupation disabled.
  Guess Type is CORE.
  Energy threshold   = 1.00e-06
  Density threshold  = 1.00e-06
  Integral threshold = 0.00e+00

  ==> Primary Basis <==

  Basis Set: 6-31G*
    Number of shells: 54
    Number of basis function: 108
    Number of Cartesian functions: 108
    Spherical Harmonics?: false
    Max angular momentum: 2

  ==> Pre-Iterations <==

   -------------------------------------------------------
    Irrep   Nso     Nmo     Nalpha   Nbeta   Ndocc  Nsocc
   -------------------------------------------------------
     A        108     108       0       0       0       0
   -------------------------------------------------------
    Total     108     108      24      24      24       0
   -------------------------------------------------------

 OEINTS: Overlap, kinetic, potential, dipole, and quadrupole integrals
         stored in file 35.

  ==> Integral Setup <==

  ==> DFJK: Density-Fitted J/K Matrices <==

    J tasked:                  Yes
    K tasked:                  Yes
    wK tasked:                  No
    OpenMP threads:              1
    Integrals threads:           1
    Memory (MB):              1430
    Algorithm:                Core
    Integral Cache:           NONE
    Schwarz Cutoff:          1E-12
    Fitting Condition:       1E-12

   => Auxiliary Basis Set <=

  Basis Set: 
    Number of shells: 225
    Number of basis function: 711
    Number of Cartesian functions: 711
    Spherical Harmonics?: false
    Max angular momentum: 3

  Minimum eigenvalue in the overlap matrix is 3.5888809599E-03.
  Using Symmetric Orthogonalization.
  SCF Guess: Core (One-Electron) Hamiltonian.

  ==> Iterations <==

                           Total Energy        Delta E     RMS |[F,P]|

   @DF-RHF iter   1:  -204.46328784593925   -2.04463e+02   8.85112e-02 
   @DF-RHF iter   2:  -226.80796723374453   -2.23447e+01   4.81685e-02 DIIS
   @DF-RHF iter   3:  -231.74725690476129   -4.93929e+00   7.16911e-02 DIIS
   @DF-RHF iter   4:  -270.42166071762767   -3.86744e+01   4.58755e-02 DIIS
   @DF-RHF iter   5:  -279.13408428906018   -8.71242e+00   3.33459e-02 DIIS
   @DF-RHF iter   6:  -281.36642479668421   -2.23234e+00   2.51534e-02 DIIS
   @DF-RHF iter   7:  -285.06008905501471   -3.69366e+00   1.19460e-02 DIIS
   @DF-RHF iter   8:  -285.89528859939264   -8.35200e-01   4.11076e-03 DIIS
   @DF-RHF iter   9:  -286.01151262209498   -1.16224e-01   1.48763e-03 DIIS
   @DF-RHF iter  10:  -286.02664860943696   -1.51360e-02   2.96578e-04 DIIS
   @DF-RHF iter  11:  -286.02798905373061   -1.34044e-03   1.13967e-04 DIIS
   @DF-RHF iter  12:  -286.02818420754897   -1.95154e-04   4.69324e-05 DIIS
   @DF-RHF iter  13:  -286.02822642247941   -4.22149e-05   3.03518e-05 DIIS
   @DF-RHF iter  14:  -286.02823532323873   -8.90076e-06   6.55097e-06 DIIS
   @DF-RHF iter  15:  -286.02823610259020   -7.79351e-07   1.93918e-06 DIIS
   @DF-RHF iter  16:  -286.02823615185923   -4.92690e-08   4.08085e-07 DIIS

  ==> Post-Iterations <==

    Orbital Energies (a.u.)
    -----------------------

    Doubly Occupied:                                                      

       1A    -20.514714     2A    -15.582975     3A    -11.340123  
       4A    -11.266790     5A    -11.250196     6A    -11.227544  
       7A     -1.383259     8A     -1.243689     9A     -1.013652  
      10A     -0.972598    11A     -0.920416    12A     -0.737691  
      13A     -0.679070    14A     -0.658529    15A     -0.650264  
      16A     -0.587295    17A     -0.575095    18A     -0.573716  
      19A     -0.565739    20A     -0.547618    21A     -0.529311  
      22A     -0.499157    23A     -0.409771    24A     -0.365578  

    Virtual:                                                              

      25A      0.205897    26A      0.223707    27A      0.262565  
      28A      0.284223    29A      0.295590    30A      0.301592  
      31A      0.309747    32A      0.326746    33A      0.345361  
      34A      0.352763    35A      0.374910    36A      0.396190  
      37A      0.443957    38A      0.505217    39A      0.593071  
      40A      0.696786    41A      0.707269    42A      0.743821  
      43A      0.776905    44A      0.777323    45A      0.810849  
      46A      0.867135    47A      0.881530    48A      0.895653  
      49A      0.949624    50A      0.979804    51A      1.007205  
      52A      1.066123    53A      1.102267    54A      1.126429  
      55A      1.129225    56A      1.136037    57A      1.154982  
      58A      1.172359    59A      1.178048    60A      1.205261  
      61A      1.223219    62A      1.229062    63A      1.255503  
      64A      1.284552    65A      1.292484    66A      1.363743  
      67A      1.398684    68A      1.563326    69A      1.568785  
      70A      1.618896    71A      1.647677    72A      1.721349  
      73A      1.745169    74A      1.813816    75A      1.948960  
      76A      2.051542    77A      2.102974    78A      2.105734  
      79A      2.188140    80A      2.208088    81A      2.236223  
      82A      2.303096    83A      2.307799    84A      2.342423  
      85A      2.369054    86A      2.415166    87A      2.431749  
      88A      2.489048    89A      2.593295    90A      2.604315  
      91A      2.618820    92A      2.668005    93A      2.696663  
      94A      2.733155    95A      2.865983    96A      2.917927  
      97A      2.974616    98A      3.025048    99A      3.067212  
     100A      3.324895   101A      3.395468   102A      3.590731  
     103A      4.429495   104A      4.455318   105A      4.606366  
     106A      4.704862   107A      4.790745   108A      4.937254  

    Final Occupation by Irrep:
              A 
    DOCC [    24 ]

  Energy converged.

  @DF-RHF Final Energy:  -286.02823615185923

   => Energetics <=

    Nuclear Repulsion Energy =            252.3252299382436377
    One-Electron Energy =                -888.5171993242429380
    Two-Electron Energy =                 350.1637332341400679
    DFT Exchange-Correlation Energy =       0.0000000000000000
    Empirical Dispersion Energy =           0.0000000000000000
    PCM Polarization Energy =               0.0000000000000000
    EFP Energy =                            0.0000000000000000
    Total Energy =                       -286.0282361518592325

    Alert: EFP and PCM quantities not currently incorporated into SCF psivars.

Properties will be evaluated at   0.000000,   0.000000,   0.000000 Bohr
  ==> Properties <==


Properties computed using the SCF density matrix

  Nuclear Dipole Moment: (a.u.)
     X:    -4.5284      Y:    -3.0395      Z:    -2.6426

  Electronic Dipole Moment: (a.u.)
     X:     3.2694      Y:     2.3222      Z:     1.9964

  Dipole Moment: (a.u.)
     X:    -1.2589      Y:    -0.7173      Z:    -0.6463     Total:     1.5865

  Dipole Moment: (Debye)
     X:    -3.1999      Y:    -1.8231      Z:    -1.6426     Total:     4.0325


  Saving occupied orbitals to File 180.

*** tstop() called on cx1-3-2-1.cx1.hpc.ic.ac.uk at Tue Jul  5 16:28:46 2016
Module time:
	user time   =       7.24 seconds =       0.12 minutes
	system time =       0.05 seconds =       0.00 minutes
	total time  =          8 seconds =       0.13 minutes
Total time:
	user time   =       7.24 seconds =       0.12 minutes
	system time =       0.05 seconds =       0.00 minutes
	total time  =          8 seconds =       0.13 minutes


Properties will be evaluated at   0.000000,   0.000000,   0.000000 Bohr

Properties computed using the  density matrix

  Nuclear Dipole Moment: (a.u.)
     X:    -4.5284      Y:    -3.0395      Z:    -2.6426

  Electronic Dipole Moment: (a.u.)
     X:     3.2694      Y:     2.3222      Z:     1.9964

  Dipole Moment: (a.u.)
     X:    -1.2589      Y:    -0.7173      Z:    -0.6463     Total:     1.5865

  Dipole Moment: (Debye)
     X:    -3.1999      Y:    -1.8231      Z:    -1.6426     Total:     4.0325

  Quadrupole Moment: (Debye Ang)
    XX:   -39.5544     YY:   -35.3793     ZZ:   -37.9461
    XY:    -3.8023     XZ:    -1.3198     YZ:    -0.9167

  Traceless Quadrupole Moment: (Debye Ang)
    XX:    -1.9278     YY:     2.2473     ZZ:    -0.3195
    XY:    -3.8023     XZ:    -1.3198     YZ:    -0.9167

  Mulliken Charges: (a.u.)
   Center  Symbol    Alpha    Beta     Spin     Total
       1     O     4.30297  4.30297  0.00000 -0.60595
       2     C     2.62507  2.62507  0.00000  0.74986
       3     C     3.29850  3.29850  0.00000 -0.59699
       4     N     3.82311  3.82311  0.00000 -0.64623
       5     H     0.40677  0.40677  0.00000  0.18646
       6     H     0.39072  0.39072  0.00000  0.21857
       7     H     0.40823  0.40823  0.00000  0.18354
       8     C     3.13742  3.13742  0.00000 -0.27483
       9     C     3.14279  3.14279  0.00000 -0.28558
      10     H     0.41001  0.41001  0.00000  0.17999
      11     H     0.41752  0.41752  0.00000  0.16497
      12     H     0.40258  0.40258  0.00000  0.19483
      13     H     0.41001  0.41001  0.00000  0.17997
      14     H     0.40763  0.40763  0.00000  0.18474
      15     H     0.41668  0.41668  0.00000  0.16665

   Total alpha = 24.00000, Total beta = 24.00000, Total charge = -0.00000


*** PSI4 exiting successfully. Buy a developer a beer!
