
    -----------------------------------------------------------------------
          Psi4: An Open-Source Ab Initio Electronic Structure Package
                               Psi4 1.1 release

                         Git: Rev {HEAD} add49b9 


    R. M. Parrish, L. A. Burns, D. G. A. Smith, A. C. Simmonett,
    A. E. DePrince III, E. G. Hohenstein, U. Bozkaya, A. Yu. Sokolov,
    R. Di Remigio, R. M. Richard, J. F. Gonthier, A. M. James,
    H. R. McAlexander, A. Kumar, M. Saitow, X. Wang, B. P. Pritchard,
    P. Verma, H. F. Schaefer III, K. Patkowski, R. A. King, E. F. Valeev,
    F. A. Evangelista, J. M. Turney, T. D. Crawford, and C. D. Sherrill,
    J. Chem. Theory Comput. in press (2017).
    (doi: 10.1021/acs.jctc.7b00174)

    -----------------------------------------------------------------------


    Psi4 started on: Tuesday, 12 December 2017 10:55AM

    Process ID:  22855
    PSIDATADIR: /shared/raimis/opt/miniconda/envs/htmd/share/psi4
    Memory:     500.0 MiB
    Threads:    1
    
  ==> Input File <==

--------------------------------------------------------------------------
set_num_threads(1)
set_memory(4203741184)

set { reference rks }
set { basis cc-pVDZ }

molecule MOL {
    0 1
    noreorient
    nocom
    symmetry c1
    O    1.141000   0.017000   0.083000
    C    2.558000   0.086000  -0.005000
    C    3.192000  -0.789000   1.067000
    O    2.254778  -1.044760   2.106024
    H    0.789000   0.590000  -0.620000
    H    2.874000   1.128000   0.115000
    H    2.871000  -0.243000  -1.001000
    H    4.072458  -0.296305   1.491243
    H    3.518873  -1.742796   0.637693
    H    2.709734  -1.604058   2.759543
}

set optking { frozen_dihedral = (" 1 2 3 4 ") }

energy, wfn = energy('B3LYP-D3', return_wfn=True)

import os
os.chdir(os.environ['HTMD_PSI4_WORKDIR'])

oeprop(wfn, 'DIPOLE', 'QUADRUPOLE', 'MULLIKEN_CHARGES')

with open('psi4out.xyz', 'w') as f:
    f.write('10 ' )
    f.write('%.12f\n' % energy)
    f.write(MOL.save_string_xyz())
--------------------------------------------------------------------------
  Threads set to 1 by Python driver.

  Memory set to   3.915 GiB by Python driver.

*** tstart() called on computer06
*** at Tue Dec 12 10:55:45 2017

   => Loading Basis Set <=

    Name: CC-PVDZ
    Role: ORBITAL
    Keyword: BASIS
    atoms 1, 4 entry O          line   190 file /shared/raimis/opt/miniconda/envs/htmd/share/psi4/basis/cc-pvdz.gbs 
    atoms 2-3  entry C          line   130 file /shared/raimis/opt/miniconda/envs/htmd/share/psi4/basis/cc-pvdz.gbs 
    atoms 5-10 entry H          line    20 file /shared/raimis/opt/miniconda/envs/htmd/share/psi4/basis/cc-pvdz.gbs 


         ---------------------------------------------------------
                                   SCF
            by Justin Turney, Rob Parrish, and Andy Simmonett
                              RKS Reference
                        1 Threads,   4009 MiB Core
         ---------------------------------------------------------

  ==> Geometry <==

    Molecular point group: c1
    Full point group: C1

    Geometry (in Angstrom), charge = 0, multiplicity = 1:

       Center              X                  Y                   Z               Mass       
    ------------   -----------------  -----------------  -----------------  -----------------
           O          1.141000000000     0.017000000000     0.083000000000    15.994914619560
           C          2.558000000000     0.086000000000    -0.005000000000    12.000000000000
           C          3.192000000000    -0.789000000000     1.067000000000    12.000000000000
           O          2.254778000000    -1.044760000000     2.106024000000    15.994914619560
           H          0.789000000000     0.590000000000    -0.620000000000     1.007825032070
           H          2.874000000000     1.128000000000     0.115000000000     1.007825032070
           H          2.871000000000    -0.243000000000    -1.001000000000     1.007825032070
           H          4.072458000000    -0.296305000000     1.491243000000     1.007825032070
           H          3.518873000000    -1.742796000000     0.637693000000     1.007825032070
           H          2.709734000000    -1.604058000000     2.759543000000     1.007825032070

  Running in c1 symmetry.

  Rotational constants: A =      0.30657  B =      0.03878  C =      0.03500 [cm^-1]
  Rotational constants: A =   9190.60487  B =   1162.60817  C =   1049.15777 [MHz]
  Nuclear repulsion =  133.078982715323917

  Charge       = 0
  Multiplicity = 1
  Electrons    = 34
  Nalpha       = 17
  Nbeta        = 17

  ==> Algorithm <==

  SCF Algorithm Type is DF.
  DIIS enabled.
  MOM disabled.
  Fractional occupation disabled.
  Guess Type is SAD.
  Energy threshold   = 1.00e-06
  Density threshold  = 1.00e-06
  Integral threshold = 0.00e+00

  ==> Primary Basis <==

  Basis Set: CC-PVDZ
    Blend: CC-PVDZ
    Number of shells: 42
    Number of basis function: 86
    Number of Cartesian functions: 90
    Spherical Harmonics?: true
    Max angular momentum: 2

  ==> DFT Potential <==

   => B3LYP Composite Functional <= 

    B3LYP Hybrid-GGA Exchange-Correlation Functional (VWN1-RPA)

    P.J. Stephens et. al., J. Phys. Chem., 98, 11623-11627, 1994

    Points   =           5000
    Deriv    =              1
    GGA      =           TRUE
    Meta     =          FALSE

    X_LRC        =          FALSE
    X_Hybrid     =           TRUE
    X_Alpha      =   2.000000E-01
    X_Omega      =   0.000000E+00
    C_LRC        =          FALSE
    C_Hybrid     =          FALSE
    C_Alpha      =   0.000000E+00
    C_Omega      =   0.000000E+00

   => Exchange Functionals <=

    0.8000    B3_X
    0.2000      HF 

   => Correlation Functionals <=

    0.1900 VWN3RPA_C
    0.8100   LYP_C

   => Molecular Quadrature <=

    Radial Scheme    =       TREUTLER
    Pruning Scheme   =           FLAT
    Nuclear Scheme   =       TREUTLER

    BS radius alpha  =              1
    Pruning alpha    =              1
    Radial Points    =             75
    Spherical Points =            302
    Total Points     =         222572
    Total Blocks     =            210
    Max Points       =           4937
    Max Functions    =             86

   => -D3ZERO: Empirical Dispersion <=

    Grimme's -D3 (zero-damping) Dispersion Correction
    Grimme S.; Antony J.; Ehrlich S.; Krieg H. (2010), J. Chem. Phys., 132: 154104

        S6 =   1.000000E+00
        S8 =   1.703000E+00
       SR6 =   1.261000E+00
    ALPHA6 =   1.400000E+01

   => Loading Basis Set <=

    Name: (CC-PVDZ AUX)
    Role: JKFIT
    Keyword: DF_BASIS_SCF
    atoms 1, 4 entry O          line   220 file /shared/raimis/opt/miniconda/envs/htmd/share/psi4/basis/cc-pvdz-jkfit.gbs 
    atoms 2-3  entry C          line   120 file /shared/raimis/opt/miniconda/envs/htmd/share/psi4/basis/cc-pvdz-jkfit.gbs 
    atoms 5-10 entry H          line    50 file /shared/raimis/opt/miniconda/envs/htmd/share/psi4/basis/cc-pvdz-jkfit.gbs 

  ==> Pre-Iterations <==

   -------------------------------------------------------
    Irrep   Nso     Nmo     Nalpha   Nbeta   Ndocc  Nsocc
   -------------------------------------------------------
     A         86      86       0       0       0       0
   -------------------------------------------------------
    Total      86      86      17      17      17       0
   -------------------------------------------------------

  ==> Integral Setup <==

  ==> DFJK: Density-Fitted J/K Matrices <==

    J tasked:                  Yes
    K tasked:                  Yes
    wK tasked:                  No
    OpenMP threads:              1
    Integrals threads:           1
    Memory (MB):              3006
    Algorithm:                Core
    Integral Cache:           NONE
    Schwarz Cutoff:          1E-12
    Fitting Condition:       1E-12

   => Auxiliary Basis Set <=

  Basis Set: (CC-PVDZ AUX)
    Blend: CC-PVDZ-JKFIT
    Number of shells: 150
    Number of basis function: 418
    Number of Cartesian functions: 474
    Spherical Harmonics?: true
    Max angular momentum: 3

  Minimum eigenvalue in the overlap matrix is 4.9103259112E-03.
  Using Symmetric Orthogonalization.

  SCF Guess: Superposition of Atomic Densities via on-the-fly atomic UHF.

  ==> Iterations <==

                           Total Energy        Delta E     RMS |[F,P]|

   @DF-RKS iter   0:  -230.96452102096927   -2.30965e+02   4.08032e-02 
   @DF-RKS iter   1:  -230.15354055799025    8.10980e-01   5.58296e-03 
   @DF-RKS iter   2:  -230.06435758595563    8.91830e-02   8.10718e-03 DIIS
   @DF-RKS iter   3:  -230.24494972427607   -1.80592e-01   6.36056e-04 DIIS
   @DF-RKS iter   4:  -230.24604974816560   -1.10002e-03   2.42294e-04 DIIS
   @DF-RKS iter   5:  -230.24625167180054   -2.01924e-04   5.99916e-05 DIIS
   @DF-RKS iter   6:  -230.24626420994946   -1.25381e-05   5.34985e-06 DIIS
   @DF-RKS iter   7:  -230.24626430127549   -9.13260e-08   1.77799e-06 DIIS
   @DF-RKS iter   8:  -230.24626430776743   -6.49194e-09   9.91639e-07 DIIS

  ==> Post-Iterations <==

    Orbital Energies (a.u.)
    -----------------------

    Doubly Occupied:                                                      

       1A    -19.122465     2A    -19.122410     3A    -10.226060  
       4A    -10.225874     5A     -1.016432     6A     -0.994355  
       7A     -0.733992     8A     -0.599537     9A     -0.526488  
      10A     -0.481808    11A     -0.456496    12A     -0.413641  
      13A     -0.394608    14A     -0.328549    15A     -0.322960  
      16A     -0.266124    17A     -0.245324  

    Virtual:                                                              

      18A      0.039863    19A      0.076214    20A      0.090098  
      21A      0.101028    22A      0.138513    23A      0.165810  
      24A      0.176057    25A      0.239842    26A      0.277087  
      27A      0.446062    28A      0.460489    29A      0.494706  
      30A      0.531599    31A      0.550123    32A      0.555978  
      33A      0.620241    34A      0.628190    35A      0.638943  
      36A      0.644633    37A      0.698007    38A      0.699295  
      39A      0.813042    40A      0.862118    41A      0.915568  
      42A      0.987118    43A      1.013467    44A      1.047815  
      45A      1.063736    46A      1.158531    47A      1.233048  
      48A      1.235254    49A      1.287140    50A      1.360967  
      51A      1.367437    52A      1.422993    53A      1.475151  
      54A      1.541669    55A      1.580158    56A      1.606223  
      57A      1.607210    58A      1.617317    59A      1.625657  
      60A      1.732965    61A      1.746422    62A      1.778405  
      63A      1.843363    64A      1.893267    65A      1.954908  
      66A      1.997537    67A      2.024079    68A      2.028380  
      69A      2.089349    70A      2.157964    71A      2.204103  
      72A      2.335055    73A      2.403397    74A      2.409577  
      75A      2.526584    76A      2.534828    77A      2.902759  
      78A      2.977308    79A      2.979159    80A      3.014852  
      81A      3.065734    82A      3.179153    83A      3.180092  
      84A      3.224868    85A      3.689826    86A      3.719874  

    Final Occupation by Irrep:
              A 
    DOCC [    17 ]

  Energy converged.

  @DF-RKS Final Energy:  -230.24626430776743

   => Energetics <=

    Nuclear Repulsion Energy =            133.0789827153239173
    One-Electron Energy =                -578.0635894524446030
    Two-Electron Energy =                 239.2822331949707007
    DFT Exchange-Correlation Energy =     -24.5398590456174723
    Empirical Dispersion Energy =          -0.0040317200000000
    PCM Polarization Energy =               0.0000000000000000
    EFP Energy =                            0.0000000000000000
    Total Energy =                       -230.2462643077674329



Properties will be evaluated at   0.000000,   0.000000,   0.000000 Bohr

Properties computed using the SCF density matrix

  Nuclear Dipole Moment: (a.u.)
     X:   148.3459      Y:   -27.6056      Z:    51.5265

  Electronic Dipole Moment: (a.u.)
     X:  -147.5805      Y:    27.7113      Z:   -51.8937

  Dipole Moment: (a.u.)
     X:     0.7654      Y:     0.1058      Z:    -0.3672     Total:     0.8555

  Dipole Moment: (Debye)
     X:     1.9455      Y:     0.2688      Z:    -0.9332     Total:     2.1745


*** tstop() called on computer06 at Tue Dec 12 10:56:06 2017
Module time:
	user time   =      19.69 seconds =       0.33 minutes
	system time =       0.18 seconds =       0.00 minutes
	total time  =         21 seconds =       0.35 minutes
Total time:
	user time   =      19.69 seconds =       0.33 minutes
	system time =       0.18 seconds =       0.00 minutes
	total time  =         21 seconds =       0.35 minutes


Properties will be evaluated at   0.000000,   0.000000,   0.000000 Bohr

Properties computed using the  density matrix

  Nuclear Dipole Moment: (a.u.)
     X:   148.3459      Y:   -27.6056      Z:    51.5265

  Electronic Dipole Moment: (a.u.)
     X:  -147.5805      Y:    27.7113      Z:   -51.8937

  Dipole Moment: (a.u.)
     X:     0.7654      Y:     0.1058      Z:    -0.3672     Total:     0.8555

  Dipole Moment: (Debye)
     X:     1.9455      Y:     0.2688      Z:    -0.9332     Total:     2.1745

  Quadrupole Moment: (Debye Ang)
    XX:   -15.4596     YY:   -22.4504     ZZ:   -21.9440
    XY:    -2.6323     XZ:     2.7927     YZ:    -3.2243

  Traceless Quadrupole Moment: (Debye Ang)
    XX:     4.4918     YY:    -2.4990     ZZ:    -1.9927
    XY:    -2.6323     XZ:     2.7927     YZ:    -3.2243

  Mulliken Charges: (a.u.)
   Center  Symbol    Alpha    Beta     Spin     Total
       1     O     4.12938  4.12938  0.00000 -0.25875
       2     C     2.93506  2.93506  0.00000  0.12988
       3     C     2.93517  2.93517  0.00000  0.12967
       4     O     4.12961  4.12961  0.00000 -0.25923
       5     H     0.43160  0.43160  0.00000  0.13681
       6     H     0.50140  0.50140  0.00000 -0.00280
       7     H     0.50254  0.50254  0.00000 -0.00509
       8     H     0.50242  0.50242  0.00000 -0.00485
       9     H     0.50128  0.50128  0.00000 -0.00256
      10     H     0.43154  0.43154  0.00000  0.13691

   Total alpha = 17.00000, Total beta = 17.00000, Total charge =  0.00000


*** Psi4 exiting successfully. Buy a developer a beer!
