    -----------------------------------------------------------------------
          Psi4: An Open-Source Ab Initio Electronic Structure Package
                              Psi4 (no tag) Driver

                          Git: Rev {detached?}  

    J. M. Turney, A. C. Simmonett, R. M. Parrish, E. G. Hohenstein,
    F. A. Evangelista, J. T. Fermann, B. J. Mintz, L. A. Burns, J. J. Wilke,
    M. L. Abrams, N. J. Russ, M. L. Leininger, C. L. Janssen, E. T. Seidl,
    W. D. Allen, H. F. Schaefer, R. A. King, E. F. Valeev, C. D. Sherrill,
    and T. D. Crawford, WIREs Comput. Mol. Sci. 2, 556-565 (2012)
    (doi: 10.1002/wcms.93)

                         Additional Contributions by
    A. E. DePrince, M. Saitow, U. Bozkaya, A. Yu. Sokolov
    -----------------------------------------------------------------------


    Psi4 started on: Tue Jul  5 16:28:05 2016

    Process ID:  20762
    PSI4DATADIR: /export131/home/mjharvey/miniconda3/share
    Memory level set to 256.000 MB

  ==> Input File <==

--------------------------------------------------------------------------
set {
	reference rhf
	basis 6-31G*
}


set_num_threads( 1 )
memory 2 gb

molecule MOL {
0 1

H	 -2.273092	 1.173159	 0.000295
O	 -1.438904	 1.618192	 0.000114
C	 -0.409536	 0.736003	 0.000030
C	 -0.635512	 -0.483125	 0.619596
C	 0.819692	 1.024717	 -0.588684
H	 -1.597883	 -0.664721	 1.061022
C	 0.367557	 -1.432764	 0.658909
C	 1.809968	 0.051387	 -0.534188
C	 1.064315	 2.355517	 -1.264062
H	 0.185867	 -2.376666	 1.141125
C	 1.599050	 -1.169979	 0.080682
H	 2.765260	 0.259030	 -0.984351
H	 0.954331	 3.188696	 -0.572932
H	 2.069614	 2.402962	 -1.662934
H	 0.381797	 2.521447	 -2.095106
H	 2.383787	 -1.903918	 0.107500

	symmetry c1
}
ee = energy('scf')
oeprop('DIPOLE', 'QUADRUPOLE', 'MULLIKEN_CHARGES')
f=open( 'psi4out.xyz', 'w' )
f.write( "16  " )
f.write( str(ee) + "\n" )
f.write( MOL.save_string_xyz() )
f.close()
--------------------------------------------------------------------------

  Memory set to   2.000 GiB by Python script.

*** tstart() called on cx1-3-15-2.cx1.hpc.ic.ac.uk
*** at Tue Jul  5 16:28:06 2016


         ---------------------------------------------------------
                                   SCF
            by Justin Turney, Rob Parrish, and Andy Simmonett
                              RHF Reference
                        1 Threads,   2000 MiB Core
         ---------------------------------------------------------

  ==> Geometry <==

    Molecular point group: c1
    Full point group: C1

    Geometry (in Angstrom), charge = 0, multiplicity = 1:

       Center              X                  Y                   Z               Mass       
    ------------   -----------------  -----------------  -----------------  -----------------
           H         -2.618084644214     0.770596540653     0.142438550127     1.007825032070
           O         -1.783896644214     1.215629540653     0.142257550127    15.994914619560
           C         -0.754528644214     0.333440540653     0.142173550127    12.000000000000
           C         -0.980504644214    -0.885687459347     0.761739550127    12.000000000000
           C          0.474699355786     0.622154540653    -0.446540449873    12.000000000000
           H         -1.942875644214    -1.067283459347     1.203165550127     1.007825032070
           C          0.022564355786    -1.835326459347     0.801052550127    12.000000000000
           C          1.464975355786    -0.351175459347    -0.392044449873    12.000000000000
           C          0.719322355786     1.952954540653    -1.121918449873    12.000000000000
           H         -0.159125644214    -2.779228459347     1.283268550127     1.007825032070
           C          1.254057355786    -1.572541459347     0.222825550127    12.000000000000
           H          2.420267355786    -0.143532459347    -0.842207449873     1.007825032070
           H          0.609338355786     2.786133540653    -0.430788449873     1.007825032070
           H          1.724621355786     2.000399540653    -1.520790449873     1.007825032070
           H          0.036804355786     2.118884540653    -1.952962449873     1.007825032070
           H          2.038794355786    -2.306480459347     0.249643550127     1.007825032070

  Running in c1 symmetry.

  Rotational constants: A =      0.10624  B =      0.07553  C =      0.04455 [cm^-1]
  Rotational constants: A =   3185.10214  B =   2264.21348  C =   1335.61085 [MHz]
  Nuclear repulsion =  349.610121646442792

  Charge       = 0
  Multiplicity = 1
  Electrons    = 58
  Nalpha       = 29
  Nbeta        = 29

  ==> Algorithm <==

  SCF Algorithm Type is DF.
  DIIS enabled.
  MOM disabled.
  Fractional occupation disabled.
  Guess Type is CORE.
  Energy threshold   = 1.00e-06
  Density threshold  = 1.00e-06
  Integral threshold = 0.00e+00

  ==> Primary Basis <==

  Basis Set: 6-31G*
    Number of shells: 64
    Number of basis function: 136
    Number of Cartesian functions: 136
    Spherical Harmonics?: false
    Max angular momentum: 2

  ==> Pre-Iterations <==

   -------------------------------------------------------
    Irrep   Nso     Nmo     Nalpha   Nbeta   Ndocc  Nsocc
   -------------------------------------------------------
     A        136     136       0       0       0       0
   -------------------------------------------------------
    Total     136     136      29      29      29       0
   -------------------------------------------------------

 OEINTS: Overlap, kinetic, potential, dipole, and quadrupole integrals
         stored in file 35.

  ==> Integral Setup <==

  ==> DFJK: Density-Fitted J/K Matrices <==

    J tasked:                  Yes
    K tasked:                  Yes
    wK tasked:                  No
    OpenMP threads:              1
    Integrals threads:           1
    Memory (MB):              1430
    Algorithm:                Core
    Integral Cache:           NONE
    Schwarz Cutoff:          1E-12
    Fitting Condition:       1E-12

   => Auxiliary Basis Set <=

  Basis Set: 
    Number of shells: 264
    Number of basis function: 848
    Number of Cartesian functions: 848
    Spherical Harmonics?: false
    Max angular momentum: 3

  Minimum eigenvalue in the overlap matrix is 3.9718792637E-04.
  Using Symmetric Orthogonalization.
  SCF Guess: Core (One-Electron) Hamiltonian.

  ==> Iterations <==

                           Total Energy        Delta E     RMS |[F,P]|

   @DF-RHF iter   1:  -269.63175980344460   -2.69632e+02   6.76237e-02 
   @DF-RHF iter   2:  -243.58364132778473    2.60481e+01   5.43773e-02 DIIS
   @DF-RHF iter   3:  -287.78439349607248   -4.42008e+01   5.33690e-02 DIIS
   @DF-RHF iter   4:  -335.34002631485492   -4.75556e+01   2.92363e-02 DIIS
   @DF-RHF iter   5:  -343.60616898485961   -8.26614e+00   9.25410e-03 DIIS
   @DF-RHF iter   6:  -344.51586450506096   -9.09696e-01   2.69543e-03 DIIS
   @DF-RHF iter   7:  -344.58419407018988   -6.83296e-02   6.96158e-04 DIIS
   @DF-RHF iter   8:  -344.58971085592481   -5.51679e-03   3.31257e-04 DIIS
   @DF-RHF iter   9:  -344.59106910264785   -1.35825e-03   1.22728e-04 DIIS
   @DF-RHF iter  10:  -344.59135126072380   -2.82158e-04   3.97846e-05 DIIS
   @DF-RHF iter  11:  -344.59140047479747   -4.92141e-05   1.90037e-05 DIIS
   @DF-RHF iter  12:  -344.59141531972119   -1.48449e-05   9.36100e-06 DIIS
   @DF-RHF iter  13:  -344.59142019646146   -4.87674e-06   2.96220e-06 DIIS
   @DF-RHF iter  14:  -344.59142062787515   -4.31414e-07   8.74115e-07 DIIS

  ==> Post-Iterations <==

    Orbital Energies (a.u.)
    -----------------------

    Doubly Occupied:                                                      

       1A    -20.583945     2A    -11.291117     3A    -11.233102  
       4A    -11.231084     5A    -11.229533     6A    -11.223825  
       7A    -11.220841     8A    -11.215223     9A     -1.404256  
      10A     -1.148294    11A     -1.043144    12A     -1.003056  
      13A     -0.928858    14A     -0.840937    15A     -0.801817  
      16A     -0.731682    17A     -0.670763    18A     -0.652645  
      19A     -0.610909    20A     -0.593971    21A     -0.574903  
      22A     -0.559185    23A     -0.543885    24A     -0.531778  
      25A     -0.501428    26A     -0.479413    27A     -0.469919  
      28A     -0.329763    29A     -0.306300  

    Virtual:                                                              

      30A      0.147222    31A      0.160891    32A      0.225744  
      33A      0.247794    34A      0.267430    35A      0.297111  
      36A      0.324128    37A      0.328335    38A      0.330896  
      39A      0.359581    40A      0.401317    41A      0.418550  
      42A      0.453542    43A      0.489336    44A      0.521042  
      45A      0.551163    46A      0.558030    47A      0.700243  
      48A      0.723967    49A      0.735095    50A      0.742383  
      51A      0.758250    52A      0.776611    53A      0.817966  
      54A      0.834415    55A      0.838636    56A      0.849203  
      57A      0.851338    58A      0.882391    59A      0.883791  
      60A      0.919688    61A      0.942176    62A      0.963591  
      63A      1.020131    64A      1.044688    65A      1.054409  
      66A      1.110961    67A      1.117911    68A      1.126977  
      69A      1.149414    70A      1.161927    71A      1.181858  
      72A      1.204432    73A      1.217421    74A      1.226165  
      75A      1.250938    76A      1.273495    77A      1.295592  
      78A      1.330344    79A      1.362033    80A      1.372742  
      81A      1.442661    82A      1.489977    83A      1.508015  
      84A      1.523954    85A      1.611604    86A      1.641549  
      87A      1.652880    88A      1.721139    89A      1.729439  
      90A      1.742172    91A      1.771895    92A      1.787851  
      93A      1.954542    94A      2.055855    95A      2.093186  
      96A      2.121134    97A      2.142658    98A      2.160013  
      99A      2.193240   100A      2.215534   101A      2.252613  
     102A      2.309227   103A      2.316217   104A      2.336218  
     105A      2.430022   106A      2.441434   107A      2.480513  
     108A      2.528536   109A      2.569980   110A      2.597935  
     111A      2.626845   112A      2.653038   113A      2.659258  
     114A      2.673785   115A      2.699181   116A      2.820539  
     117A      2.904274   118A      2.923162   119A      2.952529  
     120A      3.043625   121A      3.073011   122A      3.105006  
     123A      3.142811   124A      3.168631   125A      3.244576  
     126A      3.357183   127A      3.542549   128A      3.839599  
     129A      4.371828   130A      4.534884   131A      4.551607  
     132A      4.614838   133A      4.720251   134A      4.830636  
     135A      4.854786   136A      5.192087  

    Final Occupation by Irrep:
              A 
    DOCC [    29 ]

  Energy converged.

  @DF-RHF Final Energy:  -344.59142062787515

   => Energetics <=

    Nuclear Repulsion Energy =            349.6101216464427921
    One-Electron Energy =               -1160.4919295909828634
    Two-Electron Energy =                 466.2903873166642370
    DFT Exchange-Correlation Energy =       0.0000000000000000
    Empirical Dispersion Energy =           0.0000000000000000
    PCM Polarization Energy =               0.0000000000000000
    EFP Energy =                            0.0000000000000000
    Total Energy =                       -344.5914206278757774

    Alert: EFP and PCM quantities not currently incorporated into SCF psivars.

Properties will be evaluated at   0.000000,   0.000000,   0.000000 Bohr
  ==> Properties <==


Properties computed using the SCF density matrix

  Nuclear Dipole Moment: (a.u.)
     X:     1.9692      Y:     1.2991      Z:    -1.7507

  Electronic Dipole Moment: (a.u.)
     X:    -2.2414      Y:    -1.7190      Z:     1.6776

  Dipole Moment: (a.u.)
     X:    -0.2721      Y:    -0.4199      Z:    -0.0731     Total:     0.5057

  Dipole Moment: (Debye)
     X:    -0.6917      Y:    -1.0674      Z:    -0.1858     Total:     1.2854


  Saving occupied orbitals to File 180.

*** tstop() called on cx1-3-15-2.cx1.hpc.ic.ac.uk at Tue Jul  5 16:28:20 2016
Module time:
	user time   =      13.55 seconds =       0.23 minutes
	system time =       0.08 seconds =       0.00 minutes
	total time  =         14 seconds =       0.23 minutes
Total time:
	user time   =      13.55 seconds =       0.23 minutes
	system time =       0.08 seconds =       0.00 minutes
	total time  =         14 seconds =       0.23 minutes


Properties will be evaluated at   0.000000,   0.000000,   0.000000 Bohr

Properties computed using the  density matrix

  Nuclear Dipole Moment: (a.u.)
     X:     1.9692      Y:     1.2991      Z:    -1.7507

  Electronic Dipole Moment: (a.u.)
     X:    -2.2414      Y:    -1.7190      Z:     1.6776

  Dipole Moment: (a.u.)
     X:    -0.2721      Y:    -0.4199      Z:    -0.0731     Total:     0.5057

  Dipole Moment: (Debye)
     X:    -0.6917      Y:    -1.0674      Z:    -0.1858     Total:     1.2854

  Quadrupole Moment: (Debye Ang)
    XX:   -39.4180     YY:   -47.6747     ZZ:   -49.1742
    XY:     1.5933     XZ:    -2.1949     YZ:    -2.7542

  Traceless Quadrupole Moment: (Debye Ang)
    XX:     6.0043     YY:    -2.2524     ZZ:    -3.7519
    XY:     1.5933     XZ:    -2.1949     YZ:    -2.7542

  Mulliken Charges: (a.u.)
   Center  Symbol    Alpha    Beta     Spin     Total
       1     H     0.27027  0.27027  0.00000  0.45945
       2     O     4.38477  4.38477  0.00000 -0.76954
       3     C     2.80428  2.80428  0.00000  0.39144
       4     C     3.13767  3.13767  0.00000 -0.27534
       5     C     3.00896  3.00896  0.00000 -0.01793
       6     H     0.40398  0.40398  0.00000  0.19204
       7     C     3.09666  3.09666  0.00000 -0.19333
       8     C     3.10712  3.10712  0.00000 -0.21423
       9     C     3.24326  3.24326  0.00000 -0.48652
      10     H     0.39999  0.39999  0.00000  0.20001
      11     C     3.10710  3.10710  0.00000 -0.21421
      12     H     0.40004  0.40004  0.00000  0.19991
      13     H     0.40797  0.40797  0.00000  0.18406
      14     H     0.41712  0.41712  0.00000  0.16576
      15     H     0.41013  0.41013  0.00000  0.17974
      16     H     0.40066  0.40066  0.00000  0.19868

   Total alpha = 29.00000, Total beta = 29.00000, Total charge =  0.00000


*** PSI4 exiting successfully. Buy a developer a beer!
