    -----------------------------------------------------------------------
          Psi4: An Open-Source Ab Initio Electronic Structure Package
                              Psi4 (no tag) Driver

                          Git: Rev {detached?}  

    J. M. Turney, A. C. Simmonett, R. M. Parrish, E. G. Hohenstein,
    F. A. Evangelista, J. T. Fermann, B. J. Mintz, L. A. Burns, J. J. Wilke,
    M. L. Abrams, N. J. Russ, M. L. Leininger, C. L. Janssen, E. T. Seidl,
    W. D. Allen, H. F. Schaefer, R. A. King, E. F. Valeev, C. D. Sherrill,
    and T. D. Crawford, WIREs Comput. Mol. Sci. 2, 556-565 (2012)
    (doi: 10.1002/wcms.93)

                         Additional Contributions by
    A. E. DePrince, M. Saitow, U. Bozkaya, A. Yu. Sokolov
    -----------------------------------------------------------------------


    Psi4 started on: Tue Jul  5 16:31:26 2016

    Process ID:  16157
    PSI4DATADIR: /export131/home/mjharvey/miniconda3/share
    Memory level set to 256.000 MB

  ==> Input File <==

--------------------------------------------------------------------------
set {
	reference rhf
	basis 6-31G*
}


set_num_threads( 1 )
memory 2 gb

molecule MOL {
0 1

H	 2.305781	 1.339725	 -2.150423
O	 1.631499	 0.886023	 -1.665460
C	 0.933123	 1.800208	 -0.858179
C	 0.031547	 1.023609	 0.088541
H	 0.323809	 2.461624	 -1.471493
H	 1.627426	 2.424882	 -0.300660
C	 -1.134819	 0.293262	 -0.585751
H	 -0.364656	 1.721166	 0.821156
H	 0.648061	 0.310390	 0.633012
C	 -1.917817	 -0.639439	 0.339494
H	 -0.758119	 -0.268455	 -1.433105
H	 -1.813832	 1.041889	 -0.986690
H	 -2.777680	 -1.057197	 -0.174994
H	 -1.310268	 -1.471279	 0.680599
H	 -2.283753	 -0.111424	 1.216626

	symmetry c1
}
set optking {
	frozen_dihedral = ("
		8 4 7 11,
		2 3 4 8
	")
}

ee = energy('scf')
oeprop('DIPOLE', 'QUADRUPOLE', 'MULLIKEN_CHARGES')
f=open( 'psi4out.xyz', 'w' )
f.write( "15  " )
f.write( str(ee) + "\n" )
f.write( MOL.save_string_xyz() )
f.close()
--------------------------------------------------------------------------

  Memory set to   2.000 GiB by Python script.

*** tstart() called on cx1-1-3-3.cx1.hpc.ic.ac.uk
*** at Tue Jul  5 16:31:27 2016


         ---------------------------------------------------------
                                   SCF
            by Justin Turney, Rob Parrish, and Andy Simmonett
                              RHF Reference
                        1 Threads,   2000 MiB Core
         ---------------------------------------------------------

  ==> Geometry <==

    Molecular point group: c1
    Full point group: C1

    Geometry (in Angstrom), charge = 0, multiplicity = 1:

       Center              X                  Y                   Z               Mass       
    ------------   -----------------  -----------------  -----------------  -----------------
           H          2.351649044381     0.660060838649    -1.583140957055     1.007825032070
           O          1.677367044381     0.206358838649    -1.098177957055    15.994914619560
           C          0.978991044381     1.120543838649    -0.290896957055    12.000000000000
           C          0.077415044381     0.343944838649     0.655823042945    12.000000000000
           H          0.369677044381     1.781959838649    -0.904210957055     1.007825032070
           H          1.673294044381     1.745217838649     0.266622042945     1.007825032070
           C         -1.088950955619    -0.386402161351    -0.018468957055    12.000000000000
           H         -0.318787955619     1.041501838649     1.388438042945     1.007825032070
           H          0.693929044381    -0.369274161351     1.200294042945     1.007825032070
           C         -1.871948955619    -1.319103161351     0.906776042945    12.000000000000
           H         -0.712250955619    -0.948119161351    -0.865822957055     1.007825032070
           H         -1.767963955619     0.362224838649    -0.419407957055     1.007825032070
           H         -2.731811955619    -1.736861161351     0.392288042945     1.007825032070
           H         -1.264399955619    -2.150943161351     1.247881042945     1.007825032070
           H         -2.237884955619    -0.791088161351     1.783908042945     1.007825032070

  Running in c1 symmetry.

  Rotational constants: A =      0.42003  B =      0.07768  C =      0.07240 [cm^-1]
  Rotational constants: A =  12592.09962  B =   2328.79541  C =   2170.61037 [MHz]
  Nuclear repulsion =  188.042186131029951

  Charge       = 0
  Multiplicity = 1
  Electrons    = 42
  Nalpha       = 21
  Nbeta        = 21

  ==> Algorithm <==

  SCF Algorithm Type is DF.
  DIIS enabled.
  MOM disabled.
  Fractional occupation disabled.
  Guess Type is CORE.
  Energy threshold   = 1.00e-06
  Density threshold  = 1.00e-06
  Integral threshold = 0.00e+00

  ==> Primary Basis <==

  Basis Set: 6-31G*
    Number of shells: 50
    Number of basis function: 95
    Number of Cartesian functions: 95
    Spherical Harmonics?: false
    Max angular momentum: 2

  ==> Pre-Iterations <==

   -------------------------------------------------------
    Irrep   Nso     Nmo     Nalpha   Nbeta   Ndocc  Nsocc
   -------------------------------------------------------
     A         95      95       0       0       0       0
   -------------------------------------------------------
    Total      95      95      21      21      21       0
   -------------------------------------------------------

 OEINTS: Overlap, kinetic, potential, dipole, and quadrupole integrals
         stored in file 35.

  ==> Integral Setup <==

  ==> DFJK: Density-Fitted J/K Matrices <==

    J tasked:                  Yes
    K tasked:                  Yes
    wK tasked:                  No
    OpenMP threads:              1
    Integrals threads:           1
    Memory (MB):              1430
    Algorithm:                Core
    Integral Cache:           NONE
    Schwarz Cutoff:          1E-12
    Fitting Condition:       1E-12

   => Auxiliary Basis Set <=

  Basis Set: 
    Number of shells: 210
    Number of basis function: 655
    Number of Cartesian functions: 655
    Spherical Harmonics?: false
    Max angular momentum: 3

  Minimum eigenvalue in the overlap matrix is 4.2325910582E-03.
  Using Symmetric Orthogonalization.
  SCF Guess: Core (One-Electron) Hamiltonian.

  ==> Iterations <==

                           Total Energy        Delta E     RMS |[F,P]|

   @DF-RHF iter   1:  -180.36543390137467   -1.80365e+02   8.16135e-02 
   @DF-RHF iter   2:   -97.76537901217495    8.26001e+01   9.37160e-02 DIIS
   @DF-RHF iter   3:  -191.65652063233836   -9.38911e+01   5.12169e-02 DIIS
   @DF-RHF iter   4:  -173.34010103046353    1.83164e+01   7.11709e-02 DIIS
   @DF-RHF iter   5:  -231.56753151649116   -5.82274e+01   1.10889e-02 DIIS
   @DF-RHF iter   6:  -232.06200054141232   -4.94469e-01   4.67508e-03 DIIS
   @DF-RHF iter   7:  -232.13461654539606   -7.26160e-02   1.23699e-03 DIIS
   @DF-RHF iter   8:  -232.14274241577920   -8.12587e-03   4.51925e-04 DIIS
   @DF-RHF iter   9:  -232.14405729952790   -1.31488e-03   1.53396e-04 DIIS
   @DF-RHF iter  10:  -232.14421131142160   -1.54012e-04   4.72099e-05 DIIS
   @DF-RHF iter  11:  -232.14422765174822   -1.63403e-05   1.19566e-05 DIIS
   @DF-RHF iter  12:  -232.14422880347996   -1.15173e-06   3.04169e-06 DIIS
   @DF-RHF iter  13:  -232.14422887700738   -7.35274e-08   7.22703e-07 DIIS

  ==> Post-Iterations <==

    Orbital Energies (a.u.)
    -----------------------

    Doubly Occupied:                                                      

       1A    -20.552927     2A    -11.268551     3A    -11.212026  
       4A    -11.209535     5A    -11.205411     6A     -1.359719  
       7A     -1.063333     8A     -0.974053     9A     -0.857380  
      10A     -0.786304    11A     -0.705255    12A     -0.636969  
      13A     -0.609660    14A     -0.590938    15A     -0.544820  
      16A     -0.526613    17A     -0.518355    18A     -0.474197  
      19A     -0.463196    20A     -0.457182    21A     -0.430095  

    Virtual:                                                              

      22A      0.224584    23A      0.249674    24A      0.275806  
      25A      0.293307    26A      0.308828    27A      0.326566  
      28A      0.335249    29A      0.346289    30A      0.348284  
      31A      0.361241    32A      0.399089    33A      0.426308  
      34A      0.433625    35A      0.459113    36A      0.704342  
      37A      0.722340    38A      0.755463    39A      0.767780  
      40A      0.810666    41A      0.847340    42A      0.879720  
      43A      0.926550    44A      0.963904    45A      1.016317  
      46A      1.037607    47A      1.103405    48A      1.125883  
      49A      1.138586    50A      1.150453    51A      1.175925  
      52A      1.189354    53A      1.198603    54A      1.216209  
      55A      1.224247    56A      1.236612    57A      1.253418  
      58A      1.272082    59A      1.298213    60A      1.334323  
      61A      1.478761    62A      1.516727    63A      1.670788  
      64A      1.700301    65A      1.741898    66A      1.854975  
      67A      1.894259    68A      1.970979    69A      2.026075  
      70A      2.081185    71A      2.136177    72A      2.185416  
      73A      2.239090    74A      2.286345    75A      2.303074  
      76A      2.373513    77A      2.409205    78A      2.461403  
      79A      2.577387    80A      2.614077    81A      2.646921  
      82A      2.694892    83A      2.731157    84A      2.793086  
      85A      2.797072    86A      2.868022    87A      2.966312  
      88A      3.063397    89A      3.079093    90A      3.235687  
      91A      4.177341    92A      4.572461    93A      4.706366  
      94A      4.819607    95A      4.963228  

    Final Occupation by Irrep:
              A 
    DOCC [    21 ]

  Energy converged.

  @DF-RHF Final Energy:  -232.14422887700738

   => Energetics <=

    Nuclear Repulsion Energy =            188.0421861310299505
    One-Electron Energy =                -687.4798171545130572
    Two-Electron Energy =                 267.2934021464759553
    DFT Exchange-Correlation Energy =       0.0000000000000000
    Empirical Dispersion Energy =           0.0000000000000000
    PCM Polarization Energy =               0.0000000000000000
    EFP Energy =                            0.0000000000000000
    Total Energy =                       -232.1442288770071514

    Alert: EFP and PCM quantities not currently incorporated into SCF psivars.

Properties will be evaluated at   0.000000,   0.000000,   0.000000 Bohr
  ==> Properties <==


Properties computed using the SCF density matrix

  Nuclear Dipole Moment: (a.u.)
     X:    -3.6898      Y:    -0.3790      Z:     2.3448

  Electronic Dipole Moment: (a.u.)
     X:     3.8612      Y:     1.0186      Z:    -2.3472

  Dipole Moment: (a.u.)
     X:     0.1713      Y:     0.6397      Z:    -0.0024     Total:     0.6622

  Dipole Moment: (Debye)
     X:     0.4355      Y:     1.6258      Z:    -0.0061     Total:     1.6832


  Saving occupied orbitals to File 180.

*** tstop() called on cx1-1-3-3.cx1.hpc.ic.ac.uk at Tue Jul  5 16:31:34 2016
Module time:
	user time   =       6.45 seconds =       0.11 minutes
	system time =       0.05 seconds =       0.00 minutes
	total time  =          7 seconds =       0.12 minutes
Total time:
	user time   =       6.45 seconds =       0.11 minutes
	system time =       0.05 seconds =       0.00 minutes
	total time  =          7 seconds =       0.12 minutes


Properties will be evaluated at   0.000000,   0.000000,   0.000000 Bohr

Properties computed using the  density matrix

  Nuclear Dipole Moment: (a.u.)
     X:    -3.6898      Y:    -0.3790      Z:     2.3448

  Electronic Dipole Moment: (a.u.)
     X:     3.8612      Y:     1.0186      Z:    -2.3472

  Dipole Moment: (a.u.)
     X:     0.1713      Y:     0.6397      Z:    -0.0024     Total:     0.6622

  Dipole Moment: (Debye)
     X:     0.4355      Y:     1.6258      Z:    -0.0061     Total:     1.6832

  Quadrupole Moment: (Debye Ang)
    XX:   -30.7803     YY:   -31.8539     ZZ:   -32.8044
    XY:     3.0043     XZ:    -1.5472     YZ:    -1.5969

  Traceless Quadrupole Moment: (Debye Ang)
    XX:     1.0326     YY:    -0.0411     ZZ:    -0.9915
    XY:     3.0043     XZ:    -1.5472     YZ:    -1.5969

  Mulliken Charges: (a.u.)
   Center  Symbol    Alpha    Beta     Spin     Total
       1     H     0.28059  0.28059  0.00000  0.43883
       2     O     4.36964  4.36964  0.00000 -0.73928
       3     C     2.99781  2.99781  0.00000  0.00438
       4     C     3.15765  3.15765  0.00000 -0.31531
       5     H     0.43224  0.43224  0.00000  0.13551
       6     H     0.42926  0.42926  0.00000  0.14148
       7     C     3.15476  3.15476  0.00000 -0.30951
       8     H     0.42482  0.42482  0.00000  0.15037
       9     H     0.41588  0.41588  0.00000  0.16824
      10     C     3.23984  3.23984  0.00000 -0.47969
      11     H     0.40798  0.40798  0.00000  0.18403
      12     H     0.42644  0.42644  0.00000  0.14712
      13     H     0.41942  0.41942  0.00000  0.16117
      14     H     0.41981  0.41981  0.00000  0.16038
      15     H     0.42386  0.42386  0.00000  0.15227

   Total alpha = 21.00000, Total beta = 21.00000, Total charge = -0.00000


*** PSI4 exiting successfully. Buy a developer a beer!
