    -----------------------------------------------------------------------
          Psi4: An Open-Source Ab Initio Electronic Structure Package
                              Psi4 (no tag) Driver

                          Git: Rev {detached?}  

    J. M. Turney, A. C. Simmonett, R. M. Parrish, E. G. Hohenstein,
    F. A. Evangelista, J. T. Fermann, B. J. Mintz, L. A. Burns, J. J. Wilke,
    M. L. Abrams, N. J. Russ, M. L. Leininger, C. L. Janssen, E. T. Seidl,
    W. D. Allen, H. F. Schaefer, R. A. King, E. F. Valeev, C. D. Sherrill,
    and T. D. Crawford, WIREs Comput. Mol. Sci. 2, 556-565 (2012)
    (doi: 10.1002/wcms.93)

                         Additional Contributions by
    A. E. DePrince, M. Saitow, U. Bozkaya, A. Yu. Sokolov
    -----------------------------------------------------------------------


    Psi4 started on: Tue Jul  5 16:29:50 2016

    Process ID:  27449
    PSI4DATADIR: /export131/home/mjharvey/miniconda3/share
    Memory level set to 256.000 MB

  ==> Input File <==

--------------------------------------------------------------------------
set {
	reference rhf
	basis 6-31G*
}


set_num_threads( 1 )
memory 2 gb

molecule MOL {
0 1

H	 -0.314752	 3.001425	 -0.790005
C	 0.411227	 2.338203	 -0.303388
C	 0.065331	 0.871482	 -0.349150
O	 1.385684	 2.789984	 0.204596
C	 1.304957	 -0.017500	 -0.523855
H	 -0.651207	 0.713838	 -1.147043
H	 -0.422400	 0.625938	 0.593181
C	 1.014023	 -1.505824	 -0.327201
H	 2.059894	 0.300849	 0.187998
H	 1.731071	 0.146575	 -1.511350
H	 0.619905	 -1.696533	 0.666190
H	 1.917456	 -2.094807	 -0.446464
H	 0.285007	 -1.871871	 -1.044094

	symmetry c1
}
set optking {
	frozen_dihedral = ("
		6 3 5 9
	")
}

ee = energy('scf')
oeprop('DIPOLE', 'QUADRUPOLE', 'MULLIKEN_CHARGES')
f=open( 'psi4out.xyz', 'w' )
f.write( "13  " )
f.write( str(ee) + "\n" )
f.write( MOL.save_string_xyz() )
f.close()
--------------------------------------------------------------------------

  Memory set to   2.000 GiB by Python script.

*** tstart() called on cx1-3-1-3.cx1.hpc.ic.ac.uk
*** at Tue Jul  5 16:29:51 2016


         ---------------------------------------------------------
                                   SCF
            by Justin Turney, Rob Parrish, and Andy Simmonett
                              RHF Reference
                        1 Threads,   2000 MiB Core
         ---------------------------------------------------------

  ==> Geometry <==

    Molecular point group: c1
    Full point group: C1

    Geometry (in Angstrom), charge = 0, multiplicity = 1:

       Center              X                  Y                   Z               Mass       
    ------------   -----------------  -----------------  -----------------  -----------------
           H         -1.160967873024     2.113516801717    -0.536186348882     1.007825032070
           C         -0.434988873024     1.450294801717    -0.049569348882    12.000000000000
           C         -0.780884873024    -0.016426198283    -0.095331348882    12.000000000000
           O          0.539468126976     1.902075801717     0.458414651118    15.994914619560
           C          0.458741126976    -0.905408198283    -0.270036348882    12.000000000000
           H         -1.497422873024    -0.174070198283    -0.893224348882     1.007825032070
           H         -1.268615873024    -0.261970198283     0.846999651118     1.007825032070
           C          0.167807126976    -2.393732198283    -0.073382348882    12.000000000000
           H          1.213678126976    -0.587059198283     0.441816651118     1.007825032070
           H          0.884855126976    -0.741333198283    -1.257531348882     1.007825032070
           H         -0.226310873024    -2.584441198283     0.920008651118     1.007825032070
           H          1.071240126976    -2.982715198283    -0.192645348882     1.007825032070
           H         -0.561208873024    -2.759779198283    -0.790275348882     1.007825032070

  Running in c1 symmetry.

  Rotational constants: A =      0.49866  B =      0.08457  C =      0.07681 [cm^-1]
  Rotational constants: A =  14949.42687  B =   2535.47282  C =   2302.78503 [MHz]
  Nuclear repulsion =  172.547629381850584

  Charge       = 0
  Multiplicity = 1
  Electrons    = 40
  Nalpha       = 20
  Nbeta        = 20

  ==> Algorithm <==

  SCF Algorithm Type is DF.
  DIIS enabled.
  MOM disabled.
  Fractional occupation disabled.
  Guess Type is CORE.
  Energy threshold   = 1.00e-06
  Density threshold  = 1.00e-06
  Integral threshold = 0.00e+00

  ==> Primary Basis <==

  Basis Set: 6-31G*
    Number of shells: 46
    Number of basis function: 91
    Number of Cartesian functions: 91
    Spherical Harmonics?: false
    Max angular momentum: 2

  ==> Pre-Iterations <==

   -------------------------------------------------------
    Irrep   Nso     Nmo     Nalpha   Nbeta   Ndocc  Nsocc
   -------------------------------------------------------
     A         91      91       0       0       0       0
   -------------------------------------------------------
    Total      91      91      20      20      20       0
   -------------------------------------------------------

 OEINTS: Overlap, kinetic, potential, dipole, and quadrupole integrals
         stored in file 35.

  ==> Integral Setup <==

  ==> DFJK: Density-Fitted J/K Matrices <==

    J tasked:                  Yes
    K tasked:                  Yes
    wK tasked:                  No
    OpenMP threads:              1
    Integrals threads:           1
    Memory (MB):              1430
    Algorithm:                Core
    Integral Cache:           NONE
    Schwarz Cutoff:          1E-12
    Fitting Condition:       1E-12

   => Auxiliary Basis Set <=

  Basis Set: 
    Number of shells: 192
    Number of basis function: 605
    Number of Cartesian functions: 605
    Spherical Harmonics?: false
    Max angular momentum: 3

  Minimum eigenvalue in the overlap matrix is 3.7936550706E-03.
  Using Symmetric Orthogonalization.
  SCF Guess: Core (One-Electron) Hamiltonian.

  ==> Iterations <==

                           Total Energy        Delta E     RMS |[F,P]|

   @DF-RHF iter   1:  -178.48729024531718   -1.78487e+02   8.17633e-02 
   @DF-RHF iter   2:  -113.30280518919017    6.51845e+01   9.79763e-02 DIIS
   @DF-RHF iter   3:  -210.93603649454923   -9.76332e+01   3.39521e-02 DIIS
   @DF-RHF iter   4:  -154.65782759610232    5.62782e+01   8.19939e-02 DIIS
   @DF-RHF iter   5:  -195.71127419484861   -4.10534e+01   6.74303e-02 DIIS
   @DF-RHF iter   6:  -201.78224790507659   -6.07097e+00   5.77242e-02 DIIS
   @DF-RHF iter   7:  -207.80063755596149   -6.01839e+00   5.63808e-02 DIIS
   @DF-RHF iter   8:  -209.12967898998647   -1.32904e+00   5.53797e-02 DIIS
   @DF-RHF iter   9:  -214.84837039362287   -5.71869e+00   4.15212e-02 DIIS
   @DF-RHF iter  10:  -225.93893310698746   -1.10906e+01   2.92236e-02 DIIS
   @DF-RHF iter  11:  -227.90186499710632   -1.96293e+00   1.87013e-02 DIIS
   @DF-RHF iter  12:  -230.76623454145346   -2.86437e+00   6.31170e-03 DIIS
   @DF-RHF iter  13:  -230.94530821769899   -1.79074e-01   2.90222e-03 DIIS
   @DF-RHF iter  14:  -230.97497660371766   -2.96684e-02   1.15886e-03 DIIS
   @DF-RHF iter  15:  -230.98283662380260   -7.86002e-03   4.67874e-04 DIIS
   @DF-RHF iter  16:  -230.98404880367576   -1.21218e-03   1.71037e-04 DIIS
   @DF-RHF iter  17:  -230.98423623539952   -1.87432e-04   4.41044e-05 DIIS
   @DF-RHF iter  18:  -230.98424815906645   -1.19237e-05   1.38691e-05 DIIS
   @DF-RHF iter  19:  -230.98424969841147   -1.53935e-06   4.99473e-06 DIIS
   @DF-RHF iter  20:  -230.98424995179306   -2.53382e-07   1.61226e-06 DIIS
   @DF-RHF iter  21:  -230.98424998858633   -3.67933e-08   4.68628e-07 DIIS

  ==> Post-Iterations <==

    Orbital Energies (a.u.)
    -----------------------

    Doubly Occupied:                                                      

       1A    -20.564328     2A    -11.328659     3A    -11.236797  
       4A    -11.227764     5A    -11.217487     6A     -1.404753  
       7A     -1.078847     8A     -0.975477     9A     -0.845762  
      10A     -0.773865    11A     -0.681022    12A     -0.641642  
      13A     -0.631847    14A     -0.580952    15A     -0.563625  
      16A     -0.520388    17A     -0.506743    18A     -0.485854  
      19A     -0.479503    20A     -0.411155  

    Virtual:                                                              

      21A      0.156770    22A      0.233299    23A      0.257563  
      24A      0.281865    25A      0.302806    26A      0.312762  
      27A      0.323211    28A      0.340161    29A      0.351833  
      30A      0.387096    31A      0.424466    32A      0.458347  
      33A      0.477281    34A      0.716685    35A      0.734542  
      36A      0.743236    37A      0.764527    38A      0.774139  
      39A      0.831300    40A      0.908913    41A      0.934374  
      42A      0.948296    43A      0.976378    44A      1.033875  
      45A      1.053406    46A      1.093485    47A      1.116448  
      48A      1.129846    49A      1.153239    50A      1.176352  
      51A      1.189453    52A      1.195046    53A      1.223620  
      54A      1.251950    55A      1.287944    56A      1.313659  
      57A      1.390772    58A      1.402711    59A      1.613166  
      60A      1.663561    61A      1.723422    62A      1.789595  
      63A      1.823645    64A      1.923913    65A      1.975513  
      66A      2.046596    67A      2.115750    68A      2.145850  
      69A      2.160068    70A      2.267466    71A      2.279697  
      72A      2.308530    73A      2.341761    74A      2.422975  
      75A      2.521350    76A      2.591531    77A      2.652563  
      78A      2.681925    79A      2.727815    80A      2.783210  
      81A      2.829715    82A      2.955475    83A      2.961743  
      84A      3.111360    85A      3.262072    86A      3.364128  
      87A      4.274131    88A      4.512094    89A      4.624758  
      90A      4.771299    91A      4.930675  

    Final Occupation by Irrep:
              A 
    DOCC [    20 ]

  Energy converged.

  @DF-RHF Final Energy:  -230.98424998858633

   => Energetics <=

    Nuclear Repulsion Energy =            172.5476293818505837
    One-Electron Energy =                -654.7508197132924579
    Two-Electron Energy =                 251.2189403428557171
    DFT Exchange-Correlation Energy =       0.0000000000000000
    Empirical Dispersion Energy =           0.0000000000000000
    PCM Polarization Energy =               0.0000000000000000
    EFP Energy =                            0.0000000000000000
    Total Energy =                       -230.9842499885861571

    Alert: EFP and PCM quantities not currently incorporated into SCF psivars.

Properties will be evaluated at   0.000000,   0.000000,   0.000000 Bohr
  ==> Properties <==


Properties computed using the SCF density matrix

  Nuclear Dipole Moment: (a.u.)
     X:    -1.4456      Y:    -7.4699      Z:    -1.3675

  Electronic Dipole Moment: (a.u.)
     X:     0.6396      Y:     6.8498      Z:     0.9590

  Dipole Moment: (a.u.)
     X:    -0.8060      Y:    -0.6201      Z:    -0.4084     Total:     1.0958

  Dipole Moment: (Debye)
     X:    -2.0485      Y:    -1.5761      Z:    -1.0381     Total:     2.7853


  Saving occupied orbitals to File 180.

*** tstop() called on cx1-3-1-3.cx1.hpc.ic.ac.uk at Tue Jul  5 16:29:55 2016
Module time:
	user time   =       4.45 seconds =       0.07 minutes
	system time =       0.04 seconds =       0.00 minutes
	total time  =          4 seconds =       0.07 minutes
Total time:
	user time   =       4.45 seconds =       0.07 minutes
	system time =       0.04 seconds =       0.00 minutes
	total time  =          4 seconds =       0.07 minutes


Properties will be evaluated at   0.000000,   0.000000,   0.000000 Bohr

Properties computed using the  density matrix

  Nuclear Dipole Moment: (a.u.)
     X:    -1.4456      Y:    -7.4699      Z:    -1.3675

  Electronic Dipole Moment: (a.u.)
     X:     0.6396      Y:     6.8498      Z:     0.9590

  Dipole Moment: (a.u.)
     X:    -0.8060      Y:    -0.6201      Z:    -0.4084     Total:     1.0958

  Dipole Moment: (Debye)
     X:    -2.0485      Y:    -1.5761      Z:    -1.0381     Total:     2.7853

  Quadrupole Moment: (Debye Ang)
    XX:   -31.5462     YY:   -35.9573     ZZ:   -31.3298
    XY:    -3.9863     XZ:    -0.6628     YZ:    -2.2400

  Traceless Quadrupole Moment: (Debye Ang)
    XX:     1.3982     YY:    -3.0129     ZZ:     1.6147
    XY:    -3.9863     XZ:    -0.6628     YZ:    -2.2400

  Mulliken Charges: (a.u.)
   Center  Symbol    Alpha    Beta     Spin     Total
       1     H     0.42730  0.42730  0.00000  0.14539
       2     C     2.84034  2.84034  0.00000  0.31932
       3     C     3.20669  3.20669  0.00000 -0.41338
       4     O     4.23682  4.23682  0.00000 -0.47364
       5     C     3.15638  3.15638  0.00000 -0.31277
       6     H     0.41326  0.41326  0.00000  0.17347
       7     H     0.40199  0.40199  0.00000  0.19602
       8     C     3.24097  3.24097  0.00000 -0.48194
       9     H     0.40174  0.40174  0.00000  0.19651
      10     H     0.41755  0.41755  0.00000  0.16490
      11     H     0.42026  0.42026  0.00000  0.15948
      12     H     0.41510  0.41510  0.00000  0.16980
      13     H     0.42159  0.42159  0.00000  0.15682

   Total alpha = 20.00000, Total beta = 20.00000, Total charge = -0.00000


*** PSI4 exiting successfully. Buy a developer a beer!
