    -----------------------------------------------------------------------
          Psi4: An Open-Source Ab Initio Electronic Structure Package
                              Psi4 (no tag) Driver

                          Git: Rev {detached?}  

    J. M. Turney, A. C. Simmonett, R. M. Parrish, E. G. Hohenstein,
    F. A. Evangelista, J. T. Fermann, B. J. Mintz, L. A. Burns, J. J. Wilke,
    M. L. Abrams, N. J. Russ, M. L. Leininger, C. L. Janssen, E. T. Seidl,
    W. D. Allen, H. F. Schaefer, R. A. King, E. F. Valeev, C. D. Sherrill,
    and T. D. Crawford, WIREs Comput. Mol. Sci. 2, 556-565 (2012)
    (doi: 10.1002/wcms.93)

                         Additional Contributions by
    A. E. DePrince, M. Saitow, U. Bozkaya, A. Yu. Sokolov
    -----------------------------------------------------------------------


    Psi4 started on: Tue Jul  5 16:29:24 2016

    Process ID:   4325
    PSI4DATADIR: /export131/home/mjharvey/miniconda3/share
    Memory level set to 256.000 MB

  ==> Input File <==

--------------------------------------------------------------------------
set {
	reference rhf
	basis 6-31G*
}


set_num_threads( 1 )
memory 2 gb

molecule MOL {
0 1

H	 1.148083	 -1.049780	 0.784252
O	 1.319262	 -0.618148	 -0.041729
C	 0.709265	 0.639550	 -0.033818
C	 -0.487514	 0.750750	 -0.941527
H	 1.469721	 1.346427	 -0.345642
H	 0.418044	 0.922058	 0.977322
C	 -0.871674	 -0.162424	 -1.810606
H	 -1.048056	 1.667817	 -0.845280
H	 -0.327078	 -1.079218	 -1.946011
H	 -1.739555	 -0.016731	 -2.428289

	symmetry c1
}
set optking {
	frozen_dihedral = ("
		5 3 4 7,
		3 4 7 9
	")
}

ee = energy('scf')
oeprop('DIPOLE', 'QUADRUPOLE', 'MULLIKEN_CHARGES')
f=open( 'psi4out.xyz', 'w' )
f.write( "10  " )
f.write( str(ee) + "\n" )
f.write( MOL.save_string_xyz() )
f.close()
--------------------------------------------------------------------------

  Memory set to   2.000 GiB by Python script.

*** tstart() called on cx1-3-5-2.cx1.hpc.ic.ac.uk
*** at Tue Jul  5 16:29:24 2016


         ---------------------------------------------------------
                                   SCF
            by Justin Turney, Rob Parrish, and Andy Simmonett
                              RHF Reference
                        1 Threads,   2000 MiB Core
         ---------------------------------------------------------

  ==> Geometry <==

    Molecular point group: c1
    Full point group: C1

    Geometry (in Angstrom), charge = 0, multiplicity = 1:

       Center              X                  Y                   Z               Mass       
    ------------   -----------------  -----------------  -----------------  -----------------
           H          0.920265558911    -1.164384722478     1.437785024527     1.007825032070
           O          1.091444558911    -0.732752722478     0.611804024527    15.994914619560
           C          0.481447558911     0.524945277522     0.619715024527    12.000000000000
           C         -0.715331441089     0.636145277522    -0.287993975473    12.000000000000
           H          1.241903558911     1.231822277522     0.307891024527     1.007825032070
           H          0.190226558911     0.807453277522     1.630855024527     1.007825032070
           C         -1.099491441089    -0.277028722478    -1.157072975473    12.000000000000
           H         -1.275873441089     1.553212277522    -0.191746975473     1.007825032070
           H         -0.554895441089    -1.193822722478    -1.292477975473     1.007825032070
           H         -1.967372441089    -0.131335722478    -1.774755975473     1.007825032070

  Running in c1 symmetry.

  Rotational constants: A =      0.58839  B =      0.19387  C =      0.15188 [cm^-1]
  Rotational constants: A =  17639.47282  B =   5812.03791  C =   4553.18082 [MHz]
  Nuclear repulsion =  119.029270333816100

  Charge       = 0
  Multiplicity = 1
  Electrons    = 32
  Nalpha       = 16
  Nbeta        = 16

  ==> Algorithm <==

  SCF Algorithm Type is DF.
  DIIS enabled.
  MOM disabled.
  Fractional occupation disabled.
  Guess Type is CORE.
  Energy threshold   = 1.00e-06
  Density threshold  = 1.00e-06
  Integral threshold = 0.00e+00

  ==> Primary Basis <==

  Basis Set: 6-31G*
    Number of shells: 36
    Number of basis function: 72
    Number of Cartesian functions: 72
    Spherical Harmonics?: false
    Max angular momentum: 2

  ==> Pre-Iterations <==

   -------------------------------------------------------
    Irrep   Nso     Nmo     Nalpha   Nbeta   Ndocc  Nsocc
   -------------------------------------------------------
     A         72      72       0       0       0       0
   -------------------------------------------------------
    Total      72      72      16      16      16       0
   -------------------------------------------------------

 OEINTS: Overlap, kinetic, potential, dipole, and quadrupole integrals
         stored in file 35.

  ==> Integral Setup <==

  ==> DFJK: Density-Fitted J/K Matrices <==

    J tasked:                  Yes
    K tasked:                  Yes
    wK tasked:                  No
    OpenMP threads:              1
    Integrals threads:           1
    Memory (MB):              1430
    Algorithm:                Core
    Integral Cache:           NONE
    Schwarz Cutoff:          1E-12
    Fitting Condition:       1E-12

   => Auxiliary Basis Set <=

  Basis Set: 
    Number of shells: 150
    Number of basis function: 474
    Number of Cartesian functions: 474
    Spherical Harmonics?: false
    Max angular momentum: 3

  Minimum eigenvalue in the overlap matrix is 3.7312300808E-03.
  Using Symmetric Orthogonalization.
  SCF Guess: Core (One-Electron) Hamiltonian.

  ==> Iterations <==

                           Total Energy        Delta E     RMS |[F,P]|

   @DF-RHF iter   1:  -158.46495339669019   -1.58465e+02   8.92610e-02 
   @DF-RHF iter   2:  -121.21961485456242    3.72453e+01   7.53382e-02 DIIS
   @DF-RHF iter   3:  -163.78398286077436   -4.25644e+01   6.94929e-02 DIIS
   @DF-RHF iter   4:  -187.35863884887868   -2.35747e+01   2.85466e-02 DIIS
   @DF-RHF iter   5:  -191.68565313063260   -4.32701e+00   9.42710e-03 DIIS
   @DF-RHF iter   6:  -191.89906323276148   -2.13410e-01   2.52264e-03 DIIS
   @DF-RHF iter   7:  -191.91011641432834   -1.10532e-02   1.18138e-03 DIIS
   @DF-RHF iter   8:  -191.91302733160768   -2.91092e-03   6.55645e-04 DIIS
   @DF-RHF iter   9:  -191.91419259910526   -1.16527e-03   2.00213e-04 DIIS
   @DF-RHF iter  10:  -191.91435950470162   -1.66906e-04   4.85154e-05 DIIS
   @DF-RHF iter  11:  -191.91437694096811   -1.74363e-05   1.95993e-05 DIIS
   @DF-RHF iter  12:  -191.91437915253135   -2.21156e-06   5.67572e-06 DIIS
   @DF-RHF iter  13:  -191.91437935335756   -2.00826e-07   1.05750e-06 DIIS
   @DF-RHF iter  14:  -191.91437935829396   -4.93640e-09   1.94003e-07 DIIS

  ==> Post-Iterations <==

    Orbital Energies (a.u.)
    -----------------------

    Doubly Occupied:                                                      

       1A    -20.559421     2A    -11.277813     3A    -11.224800  
       4A    -11.212008     5A     -1.368534     6A     -1.053034  
       7A     -0.923318     8A     -0.760456     9A     -0.701082  
      10A     -0.648180    11A     -0.609579    12A     -0.579345  
      13A     -0.513470    14A     -0.503390    15A     -0.443034  
      16A     -0.357711  

    Virtual:                                                              

      17A      0.190971    18A      0.216862    19A      0.277503  
      20A      0.295992    21A      0.316849    22A      0.339131  
      23A      0.358730    24A      0.407474    25A      0.471818  
      26A      0.530096    27A      0.734853    28A      0.766386  
      29A      0.782423    30A      0.825740    31A      0.872625  
      32A      0.906561    33A      0.918116    34A      0.922628  
      35A      1.025746    36A      1.088252    37A      1.136382  
      38A      1.142057    39A      1.176147    40A      1.193150  
      41A      1.213213    42A      1.263026    43A      1.349504  
      44A      1.361718    45A      1.417876    46A      1.449705  
      47A      1.535297    48A      1.689118    49A      1.787727  
      50A      1.824272    51A      1.947487    52A      1.971157  
      53A      2.037080    54A      2.158918    55A      2.281781  
      56A      2.284975    57A      2.364772    58A      2.497789  
      59A      2.531809    60A      2.566815    61A      2.633362  
      62A      2.771870    63A      2.818968    64A      2.832684  
      65A      2.894732    66A      3.100824    67A      3.216055  
      68A      3.331877    69A      4.208870    70A      4.545586  
      71A      4.646822    72A      4.857029  

    Final Occupation by Irrep:
              A 
    DOCC [    16 ]

  Energy converged.

  @DF-RHF Final Energy:  -191.91437935829396

   => Energetics <=

    Nuclear Repulsion Energy =            119.0292703338161004
    One-Electron Energy =                -496.4169415367647389
    Two-Electron Energy =                 185.4732918446546819
    DFT Exchange-Correlation Energy =       0.0000000000000000
    Empirical Dispersion Energy =           0.0000000000000000
    PCM Polarization Energy =               0.0000000000000000
    EFP Energy =                            0.0000000000000000
    Total Energy =                       -191.9143793582939566

    Alert: EFP and PCM quantities not currently incorporated into SCF psivars.

Properties will be evaluated at   0.000000,   0.000000,   0.000000 Bohr
  ==> Properties <==


Properties computed using the SCF density matrix

  Nuclear Dipole Moment: (a.u.)
     X:    -1.3501      Y:     1.0305      Z:     0.1131

  Electronic Dipole Moment: (a.u.)
     X:     1.0326      Y:    -0.8042      Z:     0.5069

  Dipole Moment: (a.u.)
     X:    -0.3175      Y:     0.2263      Z:     0.6201     Total:     0.7325

  Dipole Moment: (Debye)
     X:    -0.8070      Y:     0.5751      Z:     1.5761     Total:     1.8618


  Saving occupied orbitals to File 180.

*** tstop() called on cx1-3-5-2.cx1.hpc.ic.ac.uk at Tue Jul  5 16:29:27 2016
Module time:
	user time   =       2.35 seconds =       0.04 minutes
	system time =       0.04 seconds =       0.00 minutes
	total time  =          3 seconds =       0.05 minutes
Total time:
	user time   =       2.35 seconds =       0.04 minutes
	system time =       0.04 seconds =       0.00 minutes
	total time  =          3 seconds =       0.05 minutes


Properties will be evaluated at   0.000000,   0.000000,   0.000000 Bohr

Properties computed using the  density matrix

  Nuclear Dipole Moment: (a.u.)
     X:    -1.3501      Y:     1.0305      Z:     0.1131

  Electronic Dipole Moment: (a.u.)
     X:     1.0326      Y:    -0.8042      Z:     0.5069

  Dipole Moment: (a.u.)
     X:    -0.3175      Y:     0.2263      Z:     0.6201     Total:     0.7325

  Dipole Moment: (Debye)
     X:    -0.8070      Y:     0.5751      Z:     1.5761     Total:     1.8618

  Quadrupole Moment: (Debye Ang)
    XX:   -27.1384     YY:   -23.3745     ZZ:   -21.8536
    XY:     0.3820     XZ:     1.6654     YZ:    -0.7139

  Traceless Quadrupole Moment: (Debye Ang)
    XX:    -3.0163     YY:     0.7477     ZZ:     2.2686
    XY:     0.3820     XZ:     1.6654     YZ:    -0.7139

  Mulliken Charges: (a.u.)
   Center  Symbol    Alpha    Beta     Spin     Total
       1     H     0.27787  0.27787  0.00000  0.44425
       2     O     4.36846  4.36846  0.00000 -0.73692
       3     C     3.00211  3.00211  0.00000 -0.00422
       4     C     3.09123  3.09123  0.00000 -0.18246
       5     H     0.41358  0.41358  0.00000  0.17285
       6     H     0.42793  0.42793  0.00000  0.14414
       7     C     3.19182  3.19182  0.00000 -0.38363
       8     H     0.41233  0.41233  0.00000  0.17534
       9     H     0.40075  0.40075  0.00000  0.19851
      10     H     0.41392  0.41392  0.00000  0.17215

   Total alpha = 16.00000, Total beta = 16.00000, Total charge =  0.00000


*** PSI4 exiting successfully. Buy a developer a beer!
