    -----------------------------------------------------------------------
          Psi4: An Open-Source Ab Initio Electronic Structure Package
                              Psi4 (no tag) Driver

                          Git: Rev {detached?}  

    J. M. Turney, A. C. Simmonett, R. M. Parrish, E. G. Hohenstein,
    F. A. Evangelista, J. T. Fermann, B. J. Mintz, L. A. Burns, J. J. Wilke,
    M. L. Abrams, N. J. Russ, M. L. Leininger, C. L. Janssen, E. T. Seidl,
    W. D. Allen, H. F. Schaefer, R. A. King, E. F. Valeev, C. D. Sherrill,
    and T. D. Crawford, WIREs Comput. Mol. Sci. 2, 556-565 (2012)
    (doi: 10.1002/wcms.93)

                         Additional Contributions by
    A. E. DePrince, M. Saitow, U. Bozkaya, A. Yu. Sokolov
    -----------------------------------------------------------------------


    Psi4 started on: Tue Jul  5 16:27:57 2016

    Process ID:  31642
    PSI4DATADIR: /export131/home/mjharvey/miniconda3/share
    Memory level set to 256.000 MB

  ==> Input File <==

--------------------------------------------------------------------------
set {
	reference rhf
	basis 6-31G*
}


set_num_threads( 1 )
memory 2 gb

molecule MOL {
0 1

H	 1.148083	 -1.049780	 0.784252
O	 1.319262	 -0.618148	 -0.041729
C	 0.709265	 0.639550	 -0.033818
C	 -0.377392	 0.791961	 0.997942
H	 0.292744	 0.779853	 -1.024792
H	 1.448555	 1.427341	 0.107113
C	 -0.866638	 -0.182305	 1.738353
H	 -0.763039	 1.793766	 1.108148
H	 -0.519273	 -1.195006	 1.642414
H	 -1.644169	 -0.001207	 2.458509

	symmetry c1
}
set optking {
	frozen_dihedral = ("
		5 3 4 7,
		3 4 7 9
	")
}

ee = energy('scf')
oeprop('DIPOLE', 'QUADRUPOLE', 'MULLIKEN_CHARGES')
f=open( 'psi4out.xyz', 'w' )
f.write( "10  " )
f.write( str(ee) + "\n" )
f.write( MOL.save_string_xyz() )
f.close()
--------------------------------------------------------------------------

  Memory set to   2.000 GiB by Python script.

*** tstart() called on cx1-3-5-2.cx1.hpc.ic.ac.uk
*** at Tue Jul  5 16:27:58 2016


         ---------------------------------------------------------
                                   SCF
            by Justin Turney, Rob Parrish, and Andy Simmonett
                              RHF Reference
                        1 Threads,   2000 MiB Core
         ---------------------------------------------------------

  ==> Geometry <==

    Molecular point group: c1
    Full point group: C1

    Geometry (in Angstrom), charge = 0, multiplicity = 1:

       Center              X                  Y                   Z               Mass       
    ------------   -----------------  -----------------  -----------------  -----------------
           H          0.895732152945    -1.168176388763     0.148889345744     1.007825032070
           O          1.066911152945    -0.736544388763    -0.677091654256    15.994914619560
           C          0.456914152945     0.521153611237    -0.669180654256    12.000000000000
           C         -0.629742847055     0.673564611237     0.362579345744    12.000000000000
           H          0.040393152945     0.661456611237    -1.660154654256     1.007825032070
           H          1.196204152945     1.308944611237    -0.528249654256     1.007825032070
           C         -1.118988847055    -0.300701388763     1.102990345744    12.000000000000
           H         -1.015389847055     1.675369611237     0.472785345744     1.007825032070
           H         -0.771623847055    -1.313402388763     1.007051345744     1.007825032070
           H         -1.896519847055    -0.119603388763     1.823146345744     1.007825032070

  Running in c1 symmetry.

  Rotational constants: A =      0.57817  B =      0.20127  C =      0.15406 [cm^-1]
  Rotational constants: A =  17332.97147  B =   6034.05283  C =   4618.73996 [MHz]
  Nuclear repulsion =  119.796052012717396

  Charge       = 0
  Multiplicity = 1
  Electrons    = 32
  Nalpha       = 16
  Nbeta        = 16

  ==> Algorithm <==

  SCF Algorithm Type is DF.
  DIIS enabled.
  MOM disabled.
  Fractional occupation disabled.
  Guess Type is CORE.
  Energy threshold   = 1.00e-06
  Density threshold  = 1.00e-06
  Integral threshold = 0.00e+00

  ==> Primary Basis <==

  Basis Set: 6-31G*
    Number of shells: 36
    Number of basis function: 72
    Number of Cartesian functions: 72
    Spherical Harmonics?: false
    Max angular momentum: 2

  ==> Pre-Iterations <==

   -------------------------------------------------------
    Irrep   Nso     Nmo     Nalpha   Nbeta   Ndocc  Nsocc
   -------------------------------------------------------
     A         72      72       0       0       0       0
   -------------------------------------------------------
    Total      72      72      16      16      16       0
   -------------------------------------------------------

 OEINTS: Overlap, kinetic, potential, dipole, and quadrupole integrals
         stored in file 35.

  ==> Integral Setup <==

  ==> DFJK: Density-Fitted J/K Matrices <==

    J tasked:                  Yes
    K tasked:                  Yes
    wK tasked:                  No
    OpenMP threads:              1
    Integrals threads:           1
    Memory (MB):              1430
    Algorithm:                Core
    Integral Cache:           NONE
    Schwarz Cutoff:          1E-12
    Fitting Condition:       1E-12

   => Auxiliary Basis Set <=

  Basis Set: 
    Number of shells: 150
    Number of basis function: 474
    Number of Cartesian functions: 474
    Spherical Harmonics?: false
    Max angular momentum: 3

  Minimum eigenvalue in the overlap matrix is 3.7223352692E-03.
  Using Symmetric Orthogonalization.
  SCF Guess: Core (One-Electron) Hamiltonian.

  ==> Iterations <==

                           Total Energy        Delta E     RMS |[F,P]|

   @DF-RHF iter   1:  -158.41853904511987   -1.58419e+02   8.89131e-02 
   @DF-RHF iter   2:  -125.23135003014720    3.31872e+01   8.12517e-02 DIIS
   @DF-RHF iter   3:  -168.92022801714472   -4.36889e+01   5.74906e-02 DIIS
   @DF-RHF iter   4:  -188.20241477345917   -1.92822e+01   3.39045e-02 DIIS
   @DF-RHF iter   5:  -191.72045487255934   -3.51804e+00   9.17400e-03 DIIS
   @DF-RHF iter   6:  -191.87010012101905   -1.49645e-01   3.84291e-03 DIIS
   @DF-RHF iter   7:  -191.90500420421728   -3.49041e-02   1.61858e-03 DIIS
   @DF-RHF iter   8:  -191.91198728839368   -6.98308e-03   4.53322e-04 DIIS
   @DF-RHF iter   9:  -191.91266738974571   -6.80101e-04   1.21768e-04 DIIS
   @DF-RHF iter  10:  -191.91273115048193   -6.37607e-05   3.53127e-05 DIIS
   @DF-RHF iter  11:  -191.91273757364672   -6.42316e-06   1.50285e-05 DIIS
   @DF-RHF iter  12:  -191.91273887060504   -1.29696e-06   4.46079e-06 DIIS
   @DF-RHF iter  13:  -191.91273897971502   -1.09110e-07   1.01307e-06 DIIS
   @DF-RHF iter  14:  -191.91273898674314   -7.02812e-09   1.61748e-07 DIIS

  ==> Post-Iterations <==

    Orbital Energies (a.u.)
    -----------------------

    Doubly Occupied:                                                      

       1A    -20.556553     2A    -11.278459     3A    -11.242372  
       4A    -11.230507     5A     -1.367569     6A     -1.066161  
       7A     -0.935064     8A     -0.774706     9A     -0.693278  
      10A     -0.656719    11A     -0.628139    12A     -0.569735  
      13A     -0.552897    14A     -0.486175    15A     -0.451897  
      16A     -0.372652  

    Virtual:                                                              

      17A      0.175790    18A      0.235845    19A      0.254611  
      20A      0.294543    21A      0.332651    22A      0.337510  
      23A      0.348522    24A      0.392180    25A      0.465227  
      26A      0.554515    27A      0.728188    28A      0.758357  
      29A      0.776605    30A      0.818390    31A      0.855733  
      32A      0.895401    33A      0.904183    34A      0.926795  
      35A      1.010179    36A      1.086736    37A      1.118441  
      38A      1.146491    39A      1.162296    40A      1.199152  
      41A      1.217483    42A      1.282079    43A      1.322076  
      44A      1.350424    45A      1.413105    46A      1.473951  
      47A      1.536356    48A      1.637523    49A      1.767610  
      50A      1.807122    51A      1.955873    52A      1.996351  
      53A      2.037818    54A      2.154980    55A      2.266594  
      56A      2.280284    57A      2.340494    58A      2.482232  
      59A      2.519959    60A      2.566877    61A      2.686410  
      62A      2.718159    63A      2.817374    64A      2.823151  
      65A      2.857396    66A      3.081829    67A      3.232444  
      68A      3.319320    69A      4.215843    70A      4.529374  
      71A      4.635041    72A      4.855294  

    Final Occupation by Irrep:
              A 
    DOCC [    16 ]

  Energy converged.

  @DF-RHF Final Energy:  -191.91273898674314

   => Energetics <=

    Nuclear Repulsion Energy =            119.7960520127173965
    One-Electron Energy =                -497.6918278515062184
    Two-Electron Energy =                 185.9830368520458990
    DFT Exchange-Correlation Energy =       0.0000000000000000
    Empirical Dispersion Energy =           0.0000000000000000
    PCM Polarization Energy =               0.0000000000000000
    EFP Energy =                            0.0000000000000000
    Total Energy =                       -191.9127389867429372

    Alert: EFP and PCM quantities not currently incorporated into SCF psivars.

Properties will be evaluated at   0.000000,   0.000000,   0.000000 Bohr
  ==> Properties <==


Properties computed using the SCF density matrix

  Nuclear Dipole Moment: (a.u.)
     X:    -1.4491      Y:     0.9757      Z:     1.1812

  Electronic Dipole Moment: (a.u.)
     X:     1.0360      Y:    -0.6274      Z:    -0.6657

  Dipole Moment: (a.u.)
     X:    -0.4131      Y:     0.3483      Z:     0.5155     Total:     0.7468

  Dipole Moment: (Debye)
     X:    -1.0500      Y:     0.8854      Z:     1.3103     Total:     1.8982


  Saving occupied orbitals to File 180.

*** tstop() called on cx1-3-5-2.cx1.hpc.ic.ac.uk at Tue Jul  5 16:28:00 2016
Module time:
	user time   =       2.26 seconds =       0.04 minutes
	system time =       0.03 seconds =       0.00 minutes
	total time  =          2 seconds =       0.03 minutes
Total time:
	user time   =       2.26 seconds =       0.04 minutes
	system time =       0.03 seconds =       0.00 minutes
	total time  =          2 seconds =       0.03 minutes


Properties will be evaluated at   0.000000,   0.000000,   0.000000 Bohr

Properties computed using the  density matrix

  Nuclear Dipole Moment: (a.u.)
     X:    -1.4491      Y:     0.9757      Z:     1.1812

  Electronic Dipole Moment: (a.u.)
     X:     1.0360      Y:    -0.6274      Z:    -0.6657

  Dipole Moment: (a.u.)
     X:    -0.4131      Y:     0.3483      Z:     0.5155     Total:     0.7468

  Dipole Moment: (Debye)
     X:    -1.0500      Y:     0.8854      Z:     1.3103     Total:     1.8982

  Quadrupole Moment: (Debye Ang)
    XX:   -27.2776     YY:   -22.8822     ZZ:   -25.8401
    XY:     0.5074     XZ:     0.7565     YZ:    -2.9547

  Traceless Quadrupole Moment: (Debye Ang)
    XX:    -1.9443     YY:     2.4511     ZZ:    -0.5068
    XY:     0.5074     XZ:     0.7565     YZ:    -2.9547

  Mulliken Charges: (a.u.)
   Center  Symbol    Alpha    Beta     Spin     Total
       1     H     0.27631  0.27631  0.00000  0.44739
       2     O     4.37511  4.37511  0.00000 -0.75022
       3     C     2.98937  2.98937  0.00000  0.02127
       4     C     3.09036  3.09036  0.00000 -0.18071
       5     H     0.41256  0.41256  0.00000  0.17489
       6     H     0.42226  0.42226  0.00000  0.15548
       7     C     3.20746  3.20746  0.00000 -0.41492
       8     H     0.40522  0.40522  0.00000  0.18956
       9     H     0.41630  0.41630  0.00000  0.16739
      10     H     0.40506  0.40506  0.00000  0.18988

   Total alpha = 16.00000, Total beta = 16.00000, Total charge = -0.00000


*** PSI4 exiting successfully. Buy a developer a beer!
