
    -----------------------------------------------------------------------
          Psi4: An Open-Source Ab Initio Electronic Structure Package
                               Psi4 1.1 release

                         Git: Rev {HEAD} add49b9 


    R. M. Parrish, L. A. Burns, D. G. A. Smith, A. C. Simmonett,
    A. E. DePrince III, E. G. Hohenstein, U. Bozkaya, A. Yu. Sokolov,
    R. Di Remigio, R. M. Richard, J. F. Gonthier, A. M. James,
    H. R. McAlexander, A. Kumar, M. Saitow, X. Wang, B. P. Pritchard,
    P. Verma, H. F. Schaefer III, K. Patkowski, R. A. King, E. F. Valeev,
    F. A. Evangelista, J. M. Turney, T. D. Crawford, and C. D. Sherrill,
    J. Chem. Theory Comput. in press (2017).
    (doi: 10.1021/acs.jctc.7b00174)

    -----------------------------------------------------------------------


    Psi4 started on: Tuesday, 12 December 2017 12:39PM

    Process ID:   4679
    PSIDATADIR: /shared/raimis/opt/miniconda/envs/htmd/share/psi4
    Memory:     500.0 MiB
    Threads:    1
    
  ==> Input File <==

--------------------------------------------------------------------------
set_num_threads(1)
set_memory(4203741184)

set { reference rks }
set { basis cc-pVDZ }

molecule MOL {
    0 1
    noreorient
    nocom
    symmetry c1
    O    1.014300  -0.002300   0.060500
    O    2.462400  -0.107500  -0.002400
    H    0.821200  -0.823600  -0.430600
    H    2.601693   0.635739  -0.619677
}

set optking { frozen_dihedral = (" 3 1 2 4 ") }

set optking { dynamic_level = 1 
 geom_maxiter = 250
 print_trajectory_xyz_file = True }

energy, wfn = optimize('B3LYP-D3', return_wfn=True)

import os
os.chdir(os.environ['HTMD_PSI4_WORKDIR'])

oeprop(wfn, 'DIPOLE', 'QUADRUPOLE', 'MULLIKEN_CHARGES')

with open('psi4out.xyz', 'w') as f:
    f.write('4 ' )
    f.write('%.12f\n' % energy)
    f.write(MOL.save_string_xyz())
--------------------------------------------------------------------------
  Threads set to 1 by Python driver.

  Memory set to   3.915 GiB by Python driver.
gradient() will perform analytic gradient computation.

*** tstart() called on computer06
*** at Tue Dec 12 12:39:15 2017

   => Loading Basis Set <=

    Name: CC-PVDZ
    Role: ORBITAL
    Keyword: BASIS
    atoms 1-2 entry O          line   190 file /shared/raimis/opt/miniconda/envs/htmd/share/psi4/basis/cc-pvdz.gbs 
    atoms 3-4 entry H          line    20 file /shared/raimis/opt/miniconda/envs/htmd/share/psi4/basis/cc-pvdz.gbs 


         ---------------------------------------------------------
                                   SCF
            by Justin Turney, Rob Parrish, and Andy Simmonett
                              RKS Reference
                        1 Threads,   4009 MiB Core
         ---------------------------------------------------------

  ==> Geometry <==

    Molecular point group: c1
    Full point group: C1

    Geometry (in Angstrom), charge = 0, multiplicity = 1:

       Center              X                  Y                   Z               Mass       
    ------------   -----------------  -----------------  -----------------  -----------------
           O          1.014300000000    -0.002300000000     0.060500000000    15.994914619560
           O          2.462400000000    -0.107500000000    -0.002400000000    15.994914619560
           H          0.821200000000    -0.823600000000    -0.430600000000     1.007825032070
           H          2.601693000000     0.635739000000    -0.619677000000     1.007825032070

  Running in c1 symmetry.

  Rotational constants: A =      9.32234  B =      0.13857  C =      0.13791 [cm^-1]
  Rotational constants: A = 279476.73526  B =   4154.18163  C =   4134.49817 [MHz]
  Nuclear repulsion =   36.805480399373891

  Charge       = 0
  Multiplicity = 1
  Electrons    = 18
  Nalpha       = 9
  Nbeta        = 9

  ==> Algorithm <==

  SCF Algorithm Type is DF.
  DIIS enabled.
  MOM disabled.
  Fractional occupation disabled.
  Guess Type is SAD.
  Energy threshold   = 1.00e-08
  Density threshold  = 1.00e-08
  Integral threshold = 0.00e+00

  ==> Primary Basis <==

  Basis Set: CC-PVDZ
    Blend: CC-PVDZ
    Number of shells: 18
    Number of basis function: 38
    Number of Cartesian functions: 40
    Spherical Harmonics?: true
    Max angular momentum: 2

  ==> DFT Potential <==

   => B3LYP Composite Functional <= 

    B3LYP Hybrid-GGA Exchange-Correlation Functional (VWN1-RPA)

    P.J. Stephens et. al., J. Phys. Chem., 98, 11623-11627, 1994

    Points   =           5000
    Deriv    =              1
    GGA      =           TRUE
    Meta     =          FALSE

    X_LRC        =          FALSE
    X_Hybrid     =           TRUE
    X_Alpha      =   2.000000E-01
    X_Omega      =   0.000000E+00
    C_LRC        =          FALSE
    C_Hybrid     =          FALSE
    C_Alpha      =   0.000000E+00
    C_Omega      =   0.000000E+00

   => Exchange Functionals <=

    0.8000    B3_X
    0.2000      HF 

   => Correlation Functionals <=

    0.1900 VWN3RPA_C
    0.8100   LYP_C

   => Molecular Quadrature <=

    Radial Scheme    =       TREUTLER
    Pruning Scheme   =           FLAT
    Nuclear Scheme   =       TREUTLER

    BS radius alpha  =              1
    Pruning alpha    =              1
    Radial Points    =             75
    Spherical Points =            302
    Total Points     =          88328
    Total Blocks     =             87
    Max Points       =           4378
    Max Functions    =             38

   => -D3ZERO: Empirical Dispersion <=

    Grimme's -D3 (zero-damping) Dispersion Correction
    Grimme S.; Antony J.; Ehrlich S.; Krieg H. (2010), J. Chem. Phys., 132: 154104

        S6 =   1.000000E+00
        S8 =   1.703000E+00
       SR6 =   1.261000E+00
    ALPHA6 =   1.400000E+01

   => Loading Basis Set <=

    Name: (CC-PVDZ AUX)
    Role: JKFIT
    Keyword: DF_BASIS_SCF
    atoms 1-2 entry O          line   220 file /shared/raimis/opt/miniconda/envs/htmd/share/psi4/basis/cc-pvdz-jkfit.gbs 
    atoms 3-4 entry H          line    50 file /shared/raimis/opt/miniconda/envs/htmd/share/psi4/basis/cc-pvdz-jkfit.gbs 

  ==> Pre-Iterations <==

   -------------------------------------------------------
    Irrep   Nso     Nmo     Nalpha   Nbeta   Ndocc  Nsocc
   -------------------------------------------------------
     A         38      38       0       0       0       0
   -------------------------------------------------------
    Total      38      38       9       9       9       0
   -------------------------------------------------------

  ==> Integral Setup <==

  ==> DFJK: Density-Fitted J/K Matrices <==

    J tasked:                  Yes
    K tasked:                  Yes
    wK tasked:                  No
    OpenMP threads:              1
    Integrals threads:           1
    Memory (MB):              3006
    Algorithm:                Core
    Integral Cache:           NONE
    Schwarz Cutoff:          1E-12
    Fitting Condition:       1E-12

   => Auxiliary Basis Set <=

  Basis Set: (CC-PVDZ AUX)
    Blend: CC-PVDZ-JKFIT
    Number of shells: 66
    Number of basis function: 186
    Number of Cartesian functions: 212
    Spherical Harmonics?: true
    Max angular momentum: 3

  Minimum eigenvalue in the overlap matrix is 2.5505063782E-02.
  Using Symmetric Orthogonalization.

  SCF Guess: Superposition of Atomic Densities via on-the-fly atomic UHF.

  ==> Iterations <==

                           Total Energy        Delta E     RMS |[F,P]|

   @DF-RKS iter   0:  -151.56568453230045   -1.51566e+02   4.64901e-02 
   @DF-RKS iter   1:  -151.51472833730804    5.09562e-02   7.89903e-03 
   @DF-RKS iter   2:  -151.51204625364710    2.68208e-03   8.42932e-03 DIIS
   @DF-RKS iter   3:  -151.54980472611038   -3.77585e-02   7.42372e-04 DIIS
   @DF-RKS iter   4:  -151.55006570646799   -2.60980e-04   1.56324e-04 DIIS
   @DF-RKS iter   5:  -151.55006609460014   -3.88132e-07   1.54908e-04 DIIS
   @DF-RKS iter   6:  -151.55007867440059   -1.25798e-05   6.85387e-06 DIIS
   @DF-RKS iter   7:  -151.55007870721224   -3.28116e-08   1.11892e-06 DIIS
   @DF-RKS iter   8:  -151.55007870831676   -1.10452e-09   1.28767e-07 DIIS
   @DF-RKS iter   9:  -151.55007870834120   -2.44427e-11   3.59619e-08 DIIS
   @DF-RKS iter  10:  -151.55007870834220   -9.94760e-13   3.38708e-09 DIIS

  ==> Post-Iterations <==

    Orbital Energies (a.u.)
    -----------------------

    Doubly Occupied:                                                      

       1A    -19.188324     2A    -19.188283     3A     -1.112842  
       4A     -0.886491     5A     -0.515392     6A     -0.485562  
       7A     -0.414650     8A     -0.308203     9A     -0.273104  

    Virtual:                                                              

      10A      0.024577    11A      0.048666    12A      0.104043  
      13A      0.573050    14A      0.582346    15A      0.847747  
      16A      0.871753    17A      0.900374    18A      0.938320  
      19A      1.013905    20A      1.058473    21A      1.212067  
      22A      1.259471    23A      1.394019    24A      1.399932  
      25A      1.683269    26A      1.709820    27A      2.069028  
      28A      2.080798    29A      2.404803    30A      2.451575  
      31A      2.546661    32A      2.875826    33A      2.916058  
      34A      3.050451    35A      3.129859    36A      3.483898  
      37A      3.536358    38A      3.825204  

    Final Occupation by Irrep:
              A 
    DOCC [     9 ]

  Energy converged.

  @DF-RKS Final Energy:  -151.55007870834220

   => Energetics <=

    Nuclear Repulsion Energy =             36.8054803993738915
    One-Electron Energy =                -281.5811865382903534
    Two-Electron Energy =                 107.6879935329557298
    DFT Exchange-Correlation Energy =     -14.4620576323814731
    Empirical Dispersion Energy =          -0.0003084700000000
    PCM Polarization Energy =               0.0000000000000000
    EFP Energy =                            0.0000000000000000
    Total Energy =                       -151.5500787083421983



Properties will be evaluated at   0.000000,   0.000000,   0.000000 Bohr

Properties computed using the SCF density matrix

  Nuclear Dipole Moment: (a.u.)
     X:    59.0284      Y:    -2.0149      Z:    -1.1064

  Electronic Dipole Moment: (a.u.)
     X:   -59.0646      Y:     1.9625      Z:     0.3608

  Dipole Moment: (a.u.)
     X:    -0.0362      Y:    -0.0525      Z:    -0.7456     Total:     0.7483

  Dipole Moment: (Debye)
     X:    -0.0920      Y:    -0.1334      Z:    -1.8950     Total:     1.9019


*** tstop() called on computer06 at Tue Dec 12 12:39:21 2017
Module time:
	user time   =       5.29 seconds =       0.09 minutes
	system time =       0.05 seconds =       0.00 minutes
	total time  =          6 seconds =       0.10 minutes
Total time:
	user time   =       5.29 seconds =       0.09 minutes
	system time =       0.05 seconds =       0.00 minutes
	total time  =          6 seconds =       0.10 minutes

*** tstart() called on computer06
*** at Tue Dec 12 12:39:21 2017


         ------------------------------------------------------------
                                   SCF GRAD                          
                          Rob Parrish, Justin Turney,                
                       Andy Simmonett, and Alex Sokolov              
         ------------------------------------------------------------

  ==> Geometry <==

    Molecular point group: c1
    Full point group: C1

    Geometry (in Angstrom), charge = 0, multiplicity = 1:

       Center              X                  Y                   Z               Mass       
    ------------   -----------------  -----------------  -----------------  -----------------
           O          1.014300000000    -0.002300000000     0.060500000000    15.994914619560
           O          2.462400000000    -0.107500000000    -0.002400000000    15.994914619560
           H          0.821200000000    -0.823600000000    -0.430600000000     1.007825032070
           H          2.601693000000     0.635739000000    -0.619677000000     1.007825032070

  Nuclear repulsion =   36.805480399373891

  ==> Basis Set <==

  Basis Set: CC-PVDZ
    Blend: CC-PVDZ
    Number of shells: 18
    Number of basis function: 38
    Number of Cartesian functions: 40
    Spherical Harmonics?: true
    Max angular momentum: 2

  ==> DFJKGrad: Density-Fitted SCF Gradients <==

    Gradient:                    1
    J tasked:                  Yes
    K tasked:                  Yes
    wK tasked:                  No
    OpenMP threads:              1
    Integrals threads:           1
    Memory (MB):              3006
    Schwarz Cutoff:          0E+00
    Fitting Condition:       1E-12

   => Auxiliary Basis Set <=

  Basis Set: (CC-PVDZ AUX)
    Blend: CC-PVDZ-JKFIT
    Number of shells: 66
    Number of basis function: 186
    Number of Cartesian functions: 212
    Spherical Harmonics?: true
    Max angular momentum: 3

  ==> DFT Potential <==

   => B3LYP Composite Functional <= 

    B3LYP Hybrid-GGA Exchange-Correlation Functional (VWN1-RPA)

    P.J. Stephens et. al., J. Phys. Chem., 98, 11623-11627, 1994

    Points   =           5000
    Deriv    =              1
    GGA      =           TRUE
    Meta     =          FALSE

    X_LRC        =          FALSE
    X_Hybrid     =           TRUE
    X_Alpha      =   2.000000E-01
    X_Omega      =   0.000000E+00
    C_LRC        =          FALSE
    C_Hybrid     =          FALSE
    C_Alpha      =   0.000000E+00
    C_Omega      =   0.000000E+00

   => Exchange Functionals <=

    0.8000    B3_X
    0.2000      HF 

   => Correlation Functionals <=

    0.1900 VWN3RPA_C
    0.8100   LYP_C

   => Molecular Quadrature <=

    Radial Scheme    =       TREUTLER
    Pruning Scheme   =           FLAT
    Nuclear Scheme   =       TREUTLER

    BS radius alpha  =              1
    Pruning alpha    =              1
    Radial Points    =             75
    Spherical Points =            302
    Total Points     =          88328
    Total Blocks     =             87
    Max Points       =           4378
    Max Functions    =             38


  -Total Gradient:
     Atom            X                  Y                   Z
    ------   -----------------  -----------------  -----------------
       1        0.001271080188     0.011451718406     0.002173667214
       2       -0.000969357665    -0.010968560530     0.003814272050
       3        0.007721272739    -0.002967739842    -0.003192346178
       4       -0.008021669892     0.002486570939    -0.002768275306


*** tstop() called on computer06 at Tue Dec 12 12:39:22 2017
Module time:
	user time   =       1.17 seconds =       0.02 minutes
	system time =       0.02 seconds =       0.00 minutes
	total time  =          1 seconds =       0.02 minutes
Total time:
	user time   =       6.46 seconds =       0.11 minutes
	system time =       0.08 seconds =       0.00 minutes
	total time  =          7 seconds =       0.12 minutes

			-----------------------------------------
			 OPTKING 2.0: for geometry optimizations 
			  - R.A. King,  Bethel University        
			-----------------------------------------
	At level 1: Red. Int., RFO, no backsteps, dynamic trust

	Internal coordinates to be generated automatically.
	Detected frag 1 with atoms:  1 2 3 4
	---Fragment 1 Bond Connectivity---
	 1 : 2 3
	 2 : 1 4
	 3 : 1
	 4 : 2

	Assuming in current code that numbering for constraints corresponds to unified fragment.
	Frozen dihedral atom list: 
	     3     1     2     4
	---Fragment 1 Geometry and Gradient---
	 O           1.9167492166       -0.0043463701        0.1143284310
	 O           4.6532616296       -0.2031455593       -0.0045353427
	 H           1.5518431003       -1.5563784430       -0.8137160728
	 H           4.9164872518        1.2013726020       -1.1710198208
	             0.0012710802        0.0114517184        0.0021736672
	            -0.0009693577       -0.0109685605        0.0038142720
	             0.0077212727       -0.0029677398       -0.0031923462
	            -0.0080216699        0.0024865709       -0.0027682753

	Previous optimization step data not found.  Starting new optimization.

	---Fragment 1 Intrafragment Coordinates---
	 - Coordinate -           - BOHR/RAD -       - ANG/DEG -
	 R(1,2)           =         2.746297	       1.453278
	 R(1,3)           =         1.844784	       0.976217
	 R(2,4)           =         1.844626	       0.976134
	 B(1,2,4)         =         1.685491	      96.571499
	 B(2,1,3)         =         1.685473	      96.570488
	*D(3,1,2,4)       =         1.919915	     110.003028

	Current energy   :      -151.5500787083

	Generating empirical Hessian (Schlegel '84) for each fragment.
	Taking RFO optimization step.
	Going to follow RFO solution 1.
	Using RFO vector 1.
	Norm of target step-size    0.13624
	Projected energy change by RFO approximation:        -0.0043073897

	Back-transformation to cartesian coordinates...
	Successfully converged to displaced geometry.

	Back-transformation to cartesian coordinates to adjust frozen coordinates...
	Successfully converged to displaced geometry.

	--- Internal Coordinate Step in ANG or DEG, aJ/ANG or AJ/DEG ---
	 ---------------------------------------------------------------------------
	   Coordinate                Previous        Force       Change         New 
	   ----------                --------       ------       ------       ------
	    1 R(1,2)          =      1.453278     0.069138     0.011645     1.464923
	    2 R(1,3)          =      0.976217    -0.021260    -0.002604     0.973614
	    3 R(2,4)          =      0.976134    -0.020632    -0.002526     0.973608
	    4 B(1,2,4)        =     96.571499     0.001179     5.425733   101.997232
	    5 B(2,1,3)        =     96.570488     0.001179     5.427642   101.998130
	    6 *D(3,1,2,4)     =    110.003028     0.000000     0.000000   110.003028
	 ---------------------------------------------------------------------------
	Successfully symmetrized geometry.

  ==> Convergence Check <==

  Measures of convergence in internal coordinates in au.
  Criteria marked as inactive (o), active & met (*), and active & unmet ( ).
  --------------------------------------------------------------------------------------------- ~
   Step     Total Energy     Delta E     MAX Force     RMS Force      MAX Disp      RMS Disp    ~
  --------------------------------------------------------------------------------------------- ~
    Convergence Criteria    1.00e-06 *    3.00e-04 *             o    1.20e-03 *             o  ~
  --------------------------------------------------------------------------------------------- ~
      1    -151.55007871   -1.52e+02      1.55e-02      9.69e-03 o    9.47e-02      5.55e-02 o  ~
  ---------------------------------------------------------------------------------------------

	Writing optimization data to binary file.
	Structure for next step:
	Cartesian Geometry (in Angstrom)
	    O     1.0067047587  -0.0356248877   0.0581858436
	    O     2.4695111072  -0.0749066668  -0.0100385873
	    H     0.7598956825  -0.8464240107  -0.4209940207
	    H     2.6634814516   0.6592945652  -0.6193302356
			--------------------------
			 OPTKING Finished Execution 
			--------------------------

    Structure for next step:
    Molecular point group: c1
    Full point group: C1

    Geometry (in Angstrom), charge = 0, multiplicity = 1:

    O            1.006704758716    -0.035624887682     0.058185843555
    O            2.469511107196    -0.074906666811    -0.010038587336
    H            0.759895682498    -0.846424010677    -0.420994020668
    H            2.663481451590     0.659294565170    -0.619330235551

gradient() will perform analytic gradient computation.

*** tstart() called on computer06
*** at Tue Dec 12 12:39:22 2017

   => Loading Basis Set <=

    Name: CC-PVDZ
    Role: ORBITAL
    Keyword: BASIS
    atoms 1-2 entry O          line   190 file /shared/raimis/opt/miniconda/envs/htmd/share/psi4/basis/cc-pvdz.gbs 
    atoms 3-4 entry H          line    20 file /shared/raimis/opt/miniconda/envs/htmd/share/psi4/basis/cc-pvdz.gbs 


         ---------------------------------------------------------
                                   SCF
            by Justin Turney, Rob Parrish, and Andy Simmonett
                              RKS Reference
                        1 Threads,   4009 MiB Core
         ---------------------------------------------------------

  ==> Geometry <==

    Molecular point group: c1
    Full point group: C1

    Geometry (in Angstrom), charge = 0, multiplicity = 1:

       Center              X                  Y                   Z               Mass       
    ------------   -----------------  -----------------  -----------------  -----------------
           O          1.006704758716    -0.035624887682     0.058185843555    15.994914619560
           O          2.469511107196    -0.074906666811    -0.010038587336    15.994914619560
           H          0.759895682498    -0.846424010677    -0.420994020668     1.007825032070
           H          2.663481451590     0.659294565170    -0.619330235551     1.007825032070

  Running in c1 symmetry.

  Rotational constants: A =      9.23415  B =      0.13802  C =      0.13729 [cm^-1]
  Rotational constants: A = 276832.96677  B =   4137.72902  C =   4115.78667 [MHz]
  Nuclear repulsion =   36.442003682312141

  Charge       = 0
  Multiplicity = 1
  Electrons    = 18
  Nalpha       = 9
  Nbeta        = 9

  ==> Algorithm <==

  SCF Algorithm Type is DF.
  DIIS enabled.
  MOM disabled.
  Fractional occupation disabled.
  Guess Type is READ.
  Energy threshold   = 1.00e-08
  Density threshold  = 1.00e-08
  Integral threshold = 0.00e+00

  ==> Primary Basis <==

  Basis Set: CC-PVDZ
    Blend: CC-PVDZ
    Number of shells: 18
    Number of basis function: 38
    Number of Cartesian functions: 40
    Spherical Harmonics?: true
    Max angular momentum: 2

  ==> DFT Potential <==

   => B3LYP Composite Functional <= 

    B3LYP Hybrid-GGA Exchange-Correlation Functional (VWN1-RPA)

    P.J. Stephens et. al., J. Phys. Chem., 98, 11623-11627, 1994

    Points   =           5000
    Deriv    =              1
    GGA      =           TRUE
    Meta     =          FALSE

    X_LRC        =          FALSE
    X_Hybrid     =           TRUE
    X_Alpha      =   2.000000E-01
    X_Omega      =   0.000000E+00
    C_LRC        =          FALSE
    C_Hybrid     =          FALSE
    C_Alpha      =   0.000000E+00
    C_Omega      =   0.000000E+00

   => Exchange Functionals <=

    0.8000    B3_X
    0.2000      HF 

   => Correlation Functionals <=

    0.1900 VWN3RPA_C
    0.8100   LYP_C

   => Molecular Quadrature <=

    Radial Scheme    =       TREUTLER
    Pruning Scheme   =           FLAT
    Nuclear Scheme   =       TREUTLER

    BS radius alpha  =              1
    Pruning alpha    =              1
    Radial Points    =             75
    Spherical Points =            302
    Total Points     =          88336
    Total Blocks     =             85
    Max Points       =           4332
    Max Functions    =             38

   => -D3ZERO: Empirical Dispersion <=

    Grimme's -D3 (zero-damping) Dispersion Correction
    Grimme S.; Antony J.; Ehrlich S.; Krieg H. (2010), J. Chem. Phys., 132: 154104

        S6 =   1.000000E+00
        S8 =   1.703000E+00
       SR6 =   1.261000E+00
    ALPHA6 =   1.400000E+01

   => Loading Basis Set <=

    Name: (CC-PVDZ AUX)
    Role: JKFIT
    Keyword: DF_BASIS_SCF
    atoms 1-2 entry O          line   220 file /shared/raimis/opt/miniconda/envs/htmd/share/psi4/basis/cc-pvdz-jkfit.gbs 
    atoms 3-4 entry H          line    50 file /shared/raimis/opt/miniconda/envs/htmd/share/psi4/basis/cc-pvdz-jkfit.gbs 

  Reading orbitals from file 180, no projection.

  ==> Pre-Iterations <==

   -------------------------------------------------------
    Irrep   Nso     Nmo     Nalpha   Nbeta   Ndocc  Nsocc
   -------------------------------------------------------
     A         38      38       0       0       0       0
   -------------------------------------------------------
    Total      38      38       9       9       9       0
   -------------------------------------------------------

  ==> Integral Setup <==

  ==> DFJK: Density-Fitted J/K Matrices <==

    J tasked:                  Yes
    K tasked:                  Yes
    wK tasked:                  No
    OpenMP threads:              1
    Integrals threads:           1
    Memory (MB):              3006
    Algorithm:                Core
    Integral Cache:           NONE
    Schwarz Cutoff:          1E-12
    Fitting Condition:       1E-12

   => Auxiliary Basis Set <=

  Basis Set: (CC-PVDZ AUX)
    Blend: CC-PVDZ-JKFIT
    Number of shells: 66
    Number of basis function: 186
    Number of Cartesian functions: 212
    Spherical Harmonics?: true
    Max angular momentum: 3

  Minimum eigenvalue in the overlap matrix is 2.6439850044E-02.
  Using Symmetric Orthogonalization.

  SCF Guess: Orbitals guess was supplied from a previous computation.

  ==> Iterations <==

                           Total Energy        Delta E     RMS |[F,P]|

   @DF-RKS iter   0:  -151.55190250532993   -1.51552e+02   1.82138e-03 
   @DF-RKS iter   1:  -151.55059015344054    1.31235e-03   3.08683e-04 
   @DF-RKS iter   2:  -151.55065030458582   -6.01511e-05   1.30642e-04 DIIS
   @DF-RKS iter   3:  -151.55065980901080   -9.50442e-06   2.16314e-05 DIIS
   @DF-RKS iter   4:  -151.55066013631992   -3.27309e-07   1.51551e-05 DIIS
   @DF-RKS iter   5:  -151.55066026905800   -1.32738e-07   2.35038e-06 DIIS
   @DF-RKS iter   6:  -151.55066026982527   -7.67272e-10   2.39287e-06 DIIS
   @DF-RKS iter   7:  -151.55066027283834   -3.01307e-09   3.06693e-07 DIIS
   @DF-RKS iter   8:  -151.55066027289149   -5.31486e-11   2.01634e-08 DIIS
   @DF-RKS iter   9:  -151.55066027289152   -2.84217e-14   3.56327e-09 DIIS

  ==> Post-Iterations <==

    Orbital Energies (a.u.)
    -----------------------

    Doubly Occupied:                                                      

       1A    -19.188358     2A    -19.188321     3A     -1.102220  
       4A     -0.892665     5A     -0.525341     6A     -0.474388  
       7A     -0.406579     8A     -0.306038     9A     -0.274242  

    Virtual:                                                              

      10A      0.013112    11A      0.051909    12A      0.106134  
      13A      0.573624    14A      0.579846    15A      0.848704  
      16A      0.871454    17A      0.916255    18A      0.954309  
      19A      1.015288    20A      1.051965    21A      1.229705  
      22A      1.264936    23A      1.395201    24A      1.413952  
      25A      1.640852    26A      1.726242    27A      2.074195  
      28A      2.082856    29A      2.396904    30A      2.435664  
      31A      2.531815    32A      2.871032    33A      2.924271  
      34A      3.051040    35A      3.128368    36A      3.503264  
      37A      3.545047    38A      3.793062  

    Final Occupation by Irrep:
              A 
    DOCC [     9 ]

  Energy converged.

  @DF-RKS Final Energy:  -151.55066027289152

   => Energetics <=

    Nuclear Repulsion Energy =             36.4420036823121407
    One-Electron Energy =                -280.8886257825068924
    Two-Electron Energy =                 107.3522412314905097
    DFT Exchange-Correlation Energy =     -14.4558932441872514
    Empirical Dispersion Energy =          -0.0003861600000000
    PCM Polarization Energy =               0.0000000000000000
    EFP Energy =                            0.0000000000000000
    Total Energy =                       -151.5506602728915198



Properties will be evaluated at   0.000000,   0.000000,   0.000000 Bohr

Properties computed using the SCF density matrix

  Nuclear Dipole Moment: (a.u.)
     X:    59.0220      Y:    -2.0246      Z:    -1.2380

  Electronic Dipole Moment: (a.u.)
     X:   -59.0582      Y:     1.9722      Z:     0.4934

  Dipole Moment: (a.u.)
     X:    -0.0361      Y:    -0.0524      Z:    -0.7447     Total:     0.7474

  Dipole Moment: (Debye)
     X:    -0.0919      Y:    -0.1332      Z:    -1.8927     Total:     1.8996


*** tstop() called on computer06 at Tue Dec 12 12:39:28 2017
Module time:
	user time   =       4.73 seconds =       0.08 minutes
	system time =       0.04 seconds =       0.00 minutes
	total time  =          6 seconds =       0.10 minutes
Total time:
	user time   =      11.21 seconds =       0.19 minutes
	system time =       0.12 seconds =       0.00 minutes
	total time  =         13 seconds =       0.22 minutes

*** tstart() called on computer06
*** at Tue Dec 12 12:39:28 2017


         ------------------------------------------------------------
                                   SCF GRAD                          
                          Rob Parrish, Justin Turney,                
                       Andy Simmonett, and Alex Sokolov              
         ------------------------------------------------------------

  ==> Geometry <==

    Molecular point group: c1
    Full point group: C1

    Geometry (in Angstrom), charge = 0, multiplicity = 1:

       Center              X                  Y                   Z               Mass       
    ------------   -----------------  -----------------  -----------------  -----------------
           O          1.006704758716    -0.035624887682     0.058185843555    15.994914619560
           O          2.469511107196    -0.074906666811    -0.010038587336    15.994914619560
           H          0.759895682498    -0.846424010677    -0.420994020668     1.007825032070
           H          2.663481451590     0.659294565170    -0.619330235551     1.007825032070

  Nuclear repulsion =   36.442003682312141

  ==> Basis Set <==

  Basis Set: CC-PVDZ
    Blend: CC-PVDZ
    Number of shells: 18
    Number of basis function: 38
    Number of Cartesian functions: 40
    Spherical Harmonics?: true
    Max angular momentum: 2

  ==> DFJKGrad: Density-Fitted SCF Gradients <==

    Gradient:                    1
    J tasked:                  Yes
    K tasked:                  Yes
    wK tasked:                  No
    OpenMP threads:              1
    Integrals threads:           1
    Memory (MB):              3006
    Schwarz Cutoff:          0E+00
    Fitting Condition:       1E-12

   => Auxiliary Basis Set <=

  Basis Set: (CC-PVDZ AUX)
    Blend: CC-PVDZ-JKFIT
    Number of shells: 66
    Number of basis function: 186
    Number of Cartesian functions: 212
    Spherical Harmonics?: true
    Max angular momentum: 3

  ==> DFT Potential <==

   => B3LYP Composite Functional <= 

    B3LYP Hybrid-GGA Exchange-Correlation Functional (VWN1-RPA)

    P.J. Stephens et. al., J. Phys. Chem., 98, 11623-11627, 1994

    Points   =           5000
    Deriv    =              1
    GGA      =           TRUE
    Meta     =          FALSE

    X_LRC        =          FALSE
    X_Hybrid     =           TRUE
    X_Alpha      =   2.000000E-01
    X_Omega      =   0.000000E+00
    C_LRC        =          FALSE
    C_Hybrid     =          FALSE
    C_Alpha      =   0.000000E+00
    C_Omega      =   0.000000E+00

   => Exchange Functionals <=

    0.8000    B3_X
    0.2000      HF 

   => Correlation Functionals <=

    0.1900 VWN3RPA_C
    0.8100   LYP_C

   => Molecular Quadrature <=

    Radial Scheme    =       TREUTLER
    Pruning Scheme   =           FLAT
    Nuclear Scheme   =       TREUTLER

    BS radius alpha  =              1
    Pruning alpha    =              1
    Radial Points    =             75
    Spherical Points =            302
    Total Points     =          88336
    Total Blocks     =             85
    Max Points       =           4332
    Max Functions    =             38


  -Total Gradient:
     Atom            X                  Y                   Z
    ------   -----------------  -----------------  -----------------
       1       -0.007302800464    -0.006502375923     0.000075744333
       2        0.007234424682     0.006403082072    -0.001539327045
       3       -0.004399476999     0.001646380143     0.000831639015
       4        0.004467692825    -0.001547316466     0.000628701757


*** tstop() called on computer06 at Tue Dec 12 12:39:29 2017
Module time:
	user time   =       1.18 seconds =       0.02 minutes
	system time =       0.03 seconds =       0.00 minutes
	total time  =          1 seconds =       0.02 minutes
Total time:
	user time   =      12.39 seconds =       0.21 minutes
	system time =       0.15 seconds =       0.00 minutes
	total time  =         14 seconds =       0.23 minutes

			-----------------------------------------
			 OPTKING 2.0: for geometry optimizations 
			  - R.A. King,  Bethel University        
			-----------------------------------------
	At level 1: Red. Int., RFO, no backsteps, dynamic trust

	Previous internal coordinate definitions found.
	---Fragment 1 Geometry and Gradient---
	 O           1.9023962906       -0.0673212812        0.1099553091
	 O           4.6666996747       -0.1415530858       -0.0189701808
	 H           1.4359947295       -1.5995095725       -0.7955634026
	 H           5.0332505035        1.2458861691       -1.1703645310
	            -0.0073028005       -0.0065023759        0.0000757443
	             0.0072344247        0.0064030821       -0.0015393270
	            -0.0043994770        0.0016463801        0.0008316390
	             0.0044676928       -0.0015473165        0.0006287018

	---Fragment 1 Intrafragment Coordinates---
	 - Coordinate -           - BOHR/RAD -       - ANG/DEG -
	 R(1,2)           =         2.768304	       1.464923
	 R(1,3)           =         1.839863	       0.973614
	 R(2,4)           =         1.839852	       0.973608
	 B(1,2,4)         =         1.780188	     101.997232
	 B(2,1,3)         =         1.780203	     101.998130
	*D(3,1,2,4)       =         1.919915	     110.003028

	Current energy   :      -151.5506602729

	Energy change for the previous step:
		Projected    :        -0.0043073897
		Actual       :        -0.0005815645
	Energy ratio indicates iffy step: Trust radius decreased to 1.250e-01.


	Performing BFGS update.
	Previous computed or guess Hessian on step 1.
	Steps to be used in Hessian update: 1
	Taking RFO optimization step.
	Going to follow RFO solution 1.
	Using RFO vector 1.
	Norm of target step-size    0.04833
	Projected energy change by RFO approximation:        -0.0012559756

	Back-transformation to cartesian coordinates...
	Successfully converged to displaced geometry.

	Back-transformation to cartesian coordinates to adjust frozen coordinates...
	Successfully converged to displaced geometry.

	--- Internal Coordinate Step in ANG or DEG, aJ/ANG or AJ/DEG ---
	 ---------------------------------------------------------------------------
	   Coordinate                Previous        Force       Change         New 
	   ----------                --------       ------       ------       ------
	    1 R(1,2)          =      1.464923    -0.095562    -0.009893     1.455031
	    2 R(1,3)          =      0.973614     0.005494     0.000378     0.973991
	    3 R(2,4)          =      0.973608     0.005536     0.000382     0.973990
	    4 B(1,2,4)        =    101.997232    -0.000661    -1.806401   100.190832
	    5 B(2,1,3)        =    101.998130    -0.000661    -1.807019   100.191111
	    6 *D(3,1,2,4)     =    110.003028    -0.000000     0.000000   110.003028
	 ---------------------------------------------------------------------------
	Successfully symmetrized geometry.

  ==> Convergence Check <==

  Measures of convergence in internal coordinates in au.
  Criteria marked as inactive (o), active & met (*), and active & unmet ( ).
  ---------------------------------------------------------------------------------------------
   Step     Total Energy     Delta E     MAX Force     RMS Force      MAX Disp      RMS Disp   
  ---------------------------------------------------------------------------------------------
    Convergence Criteria    1.00e-06 *    3.00e-04 *             o    1.20e-03 *             o
  ---------------------------------------------------------------------------------------------
      2    -151.55066027   -5.82e-04      1.16e-02      6.91e-03 o    3.15e-02      1.97e-02 o  ~
  ---------------------------------------------------------------------------------------------

	Writing optimization data to binary file.
	Structure for next step:
	Cartesian Geometry (in Angstrom)
	    O     1.0120993574  -0.0239079368   0.0589084449
	    O     2.4642858531  -0.0863726148  -0.0071713335
	    H     0.7824307206  -0.8376751658  -0.4245105379
	    H     2.6407770689   0.6502947174  -0.6194035736
			--------------------------
			 OPTKING Finished Execution 
			--------------------------

    Structure for next step:
    Molecular point group: c1
    Full point group: C1

    Geometry (in Angstrom), charge = 0, multiplicity = 1:

    O            1.012099357393    -0.023907936809     0.058908444933
    O            2.464285853101    -0.086372614811    -0.007171333487
    H            0.782430720645    -0.837675165794    -0.424510537882
    H            2.640777068861     0.650294717414    -0.619403573564

gradient() will perform analytic gradient computation.

*** tstart() called on computer06
*** at Tue Dec 12 12:39:29 2017

   => Loading Basis Set <=

    Name: CC-PVDZ
    Role: ORBITAL
    Keyword: BASIS
    atoms 1-2 entry O          line   190 file /shared/raimis/opt/miniconda/envs/htmd/share/psi4/basis/cc-pvdz.gbs 
    atoms 3-4 entry H          line    20 file /shared/raimis/opt/miniconda/envs/htmd/share/psi4/basis/cc-pvdz.gbs 


         ---------------------------------------------------------
                                   SCF
            by Justin Turney, Rob Parrish, and Andy Simmonett
                              RKS Reference
                        1 Threads,   4009 MiB Core
         ---------------------------------------------------------

  ==> Geometry <==

    Molecular point group: c1
    Full point group: C1

    Geometry (in Angstrom), charge = 0, multiplicity = 1:

       Center              X                  Y                   Z               Mass       
    ------------   -----------------  -----------------  -----------------  -----------------
           O          1.012099357393    -0.023907936809     0.058908444933    15.994914619560
           O          2.464285853101    -0.086372614811    -0.007171333487    15.994914619560
           H          0.782430720645    -0.837675165794    -0.424510537882     1.007825032070
           H          2.640777068861     0.650294717414    -0.619403573564     1.007825032070

  Running in c1 symmetry.

  Rotational constants: A =      9.31110  B =      0.13836  C =      0.13767 [cm^-1]
  Rotational constants: A = 279139.73133  B =   4148.06416  C =   4127.17806 [MHz]
  Nuclear repulsion =   36.673357407005781

  Charge       = 0
  Multiplicity = 1
  Electrons    = 18
  Nalpha       = 9
  Nbeta        = 9

  ==> Algorithm <==

  SCF Algorithm Type is DF.
  DIIS enabled.
  MOM disabled.
  Fractional occupation disabled.
  Guess Type is READ.
  Energy threshold   = 1.00e-08
  Density threshold  = 1.00e-08
  Integral threshold = 0.00e+00

  ==> Primary Basis <==

  Basis Set: CC-PVDZ
    Blend: CC-PVDZ
    Number of shells: 18
    Number of basis function: 38
    Number of Cartesian functions: 40
    Spherical Harmonics?: true
    Max angular momentum: 2

  ==> DFT Potential <==

   => B3LYP Composite Functional <= 

    B3LYP Hybrid-GGA Exchange-Correlation Functional (VWN1-RPA)

    P.J. Stephens et. al., J. Phys. Chem., 98, 11623-11627, 1994

    Points   =           5000
    Deriv    =              1
    GGA      =           TRUE
    Meta     =          FALSE

    X_LRC        =          FALSE
    X_Hybrid     =           TRUE
    X_Alpha      =   2.000000E-01
    X_Omega      =   0.000000E+00
    C_LRC        =          FALSE
    C_Hybrid     =          FALSE
    C_Alpha      =   0.000000E+00
    C_Omega      =   0.000000E+00

   => Exchange Functionals <=

    0.8000    B3_X
    0.2000      HF 

   => Correlation Functionals <=

    0.1900 VWN3RPA_C
    0.8100   LYP_C

   => Molecular Quadrature <=

    Radial Scheme    =       TREUTLER
    Pruning Scheme   =           FLAT
    Nuclear Scheme   =       TREUTLER

    BS radius alpha  =              1
    Pruning alpha    =              1
    Radial Points    =             75
    Spherical Points =            302
    Total Points     =          88336
    Total Blocks     =             85
    Max Points       =           4367
    Max Functions    =             38

   => -D3ZERO: Empirical Dispersion <=

    Grimme's -D3 (zero-damping) Dispersion Correction
    Grimme S.; Antony J.; Ehrlich S.; Krieg H. (2010), J. Chem. Phys., 132: 154104

        S6 =   1.000000E+00
        S8 =   1.703000E+00
       SR6 =   1.261000E+00
    ALPHA6 =   1.400000E+01

   => Loading Basis Set <=

    Name: (CC-PVDZ AUX)
    Role: JKFIT
    Keyword: DF_BASIS_SCF
    atoms 1-2 entry O          line   220 file /shared/raimis/opt/miniconda/envs/htmd/share/psi4/basis/cc-pvdz-jkfit.gbs 
    atoms 3-4 entry H          line    50 file /shared/raimis/opt/miniconda/envs/htmd/share/psi4/basis/cc-pvdz-jkfit.gbs 

  Reading orbitals from file 180, no projection.

  ==> Pre-Iterations <==

   -------------------------------------------------------
    Irrep   Nso     Nmo     Nalpha   Nbeta   Ndocc  Nsocc
   -------------------------------------------------------
     A         38      38       0       0       0       0
   -------------------------------------------------------
    Total      38      38       9       9       9       0
   -------------------------------------------------------

  ==> Integral Setup <==

  ==> DFJK: Density-Fitted J/K Matrices <==

    J tasked:                  Yes
    K tasked:                  Yes
    wK tasked:                  No
    OpenMP threads:              1
    Integrals threads:           1
    Memory (MB):              3006
    Algorithm:                Core
    Integral Cache:           NONE
    Schwarz Cutoff:          1E-12
    Fitting Condition:       1E-12

   => Auxiliary Basis Set <=

  Basis Set: (CC-PVDZ AUX)
    Blend: CC-PVDZ-JKFIT
    Number of shells: 66
    Number of basis function: 186
    Number of Cartesian functions: 212
    Spherical Harmonics?: true
    Max angular momentum: 3

  Minimum eigenvalue in the overlap matrix is 2.5753321691E-02.
  Using Symmetric Orthogonalization.

  SCF Guess: Orbitals guess was supplied from a previous computation.

  ==> Iterations <==

                           Total Energy        Delta E     RMS |[F,P]|

   @DF-RKS iter   0:  -151.55441812306395   -1.51554e+02   7.55503e-04 
   @DF-RKS iter   1:  -151.55105331884721    3.36480e-03   1.63087e-04 
   @DF-RKS iter   2:  -151.55106575641736   -1.24376e-05   7.79741e-05 DIIS
   @DF-RKS iter   3:  -151.55106881520427   -3.05879e-06   1.04670e-05 DIIS
   @DF-RKS iter   4:  -151.55106887697974   -6.17755e-08   6.16262e-06 DIIS
   @DF-RKS iter   5:  -151.55106890145407   -2.44743e-08   4.71110e-07 DIIS
   @DF-RKS iter   6:  -151.55106890161133   -1.57257e-10   2.97849e-07 DIIS
   @DF-RKS iter   7:  -151.55106890164728   -3.59535e-11   1.48519e-07 DIIS
   @DF-RKS iter   8:  -151.55106890165936   -1.20792e-11   5.84135e-09 DIIS

  ==> Post-Iterations <==

    Orbital Energies (a.u.)
    -----------------------

    Doubly Occupied:                                                      

       1A    -19.187955     2A    -19.187916     3A     -1.108111  
       4A     -0.889761     5A     -0.523204     6A     -0.478829  
       7A     -0.410028     8A     -0.306406     9A     -0.273174  

    Virtual:                                                              

      10A      0.020297    11A      0.050960    12A      0.106525  
      13A      0.574266    14A      0.581514    15A      0.848468  
      16A      0.872194    17A      0.908873    18A      0.948789  
      19A      1.015092    20A      1.053996    21A      1.222367  
      22A      1.262591    23A      1.396142    24A      1.409800  
      25A      1.658487    26A      1.718174    27A      2.075894  
      28A      2.084670    29A      2.402398    30A      2.435967  
      31A      2.531956    32A      2.872202    33A      2.923784  
      34A      3.058099    35A      3.137679    36A      3.497146  
      37A      3.540706    38A      3.811234  

    Final Occupation by Irrep:
              A 
    DOCC [     9 ]

  Energy converged.

  @DF-RKS Final Energy:  -151.55106890165936

   => Energetics <=

    Nuclear Repulsion Energy =             36.6733574070057813
    One-Electron Energy =                -281.3347498112234462
    Two-Electron Energy =                 107.5711488604698758
    DFT Exchange-Correlation Energy =     -14.4604688879115706
    Empirical Dispersion Energy =          -0.0003564700000000
    PCM Polarization Energy =               0.0000000000000000
    EFP Energy =                            0.0000000000000000
    Total Energy =                       -151.5510689016593915



Properties will be evaluated at   0.000000,   0.000000,   0.000000 Bohr

Properties computed using the SCF density matrix

  Nuclear Dipole Moment: (a.u.)
     X:    59.0243      Y:    -2.0213      Z:    -1.1906

  Electronic Dipole Moment: (a.u.)
     X:   -59.0604      Y:     1.9689      Z:     0.4454

  Dipole Moment: (a.u.)
     X:    -0.0362      Y:    -0.0524      Z:    -0.7452     Total:     0.7479

  Dipole Moment: (Debye)
     X:    -0.0919      Y:    -0.1333      Z:    -1.8941     Total:     1.9010


*** tstop() called on computer06 at Tue Dec 12 12:39:34 2017
Module time:
	user time   =       4.47 seconds =       0.07 minutes
	system time =       0.03 seconds =       0.00 minutes
	total time  =          5 seconds =       0.08 minutes
Total time:
	user time   =      16.88 seconds =       0.28 minutes
	system time =       0.18 seconds =       0.00 minutes
	total time  =         19 seconds =       0.32 minutes

*** tstart() called on computer06
*** at Tue Dec 12 12:39:34 2017


         ------------------------------------------------------------
                                   SCF GRAD                          
                          Rob Parrish, Justin Turney,                
                       Andy Simmonett, and Alex Sokolov              
         ------------------------------------------------------------

  ==> Geometry <==

    Molecular point group: c1
    Full point group: C1

    Geometry (in Angstrom), charge = 0, multiplicity = 1:

       Center              X                  Y                   Z               Mass       
    ------------   -----------------  -----------------  -----------------  -----------------
           O          1.012099357393    -0.023907936809     0.058908444933    15.994914619560
           O          2.464285853101    -0.086372614811    -0.007171333487    15.994914619560
           H          0.782430720645    -0.837675165794    -0.424510537882     1.007825032070
           H          2.640777068861     0.650294717414    -0.619403573564     1.007825032070

  Nuclear repulsion =   36.673357407005781

  ==> Basis Set <==

  Basis Set: CC-PVDZ
    Blend: CC-PVDZ
    Number of shells: 18
    Number of basis function: 38
    Number of Cartesian functions: 40
    Spherical Harmonics?: true
    Max angular momentum: 2

  ==> DFJKGrad: Density-Fitted SCF Gradients <==

    Gradient:                    1
    J tasked:                  Yes
    K tasked:                  Yes
    wK tasked:                  No
    OpenMP threads:              1
    Integrals threads:           1
    Memory (MB):              3006
    Schwarz Cutoff:          0E+00
    Fitting Condition:       1E-12

   => Auxiliary Basis Set <=

  Basis Set: (CC-PVDZ AUX)
    Blend: CC-PVDZ-JKFIT
    Number of shells: 66
    Number of basis function: 186
    Number of Cartesian functions: 212
    Spherical Harmonics?: true
    Max angular momentum: 3

  ==> DFT Potential <==

   => B3LYP Composite Functional <= 

    B3LYP Hybrid-GGA Exchange-Correlation Functional (VWN1-RPA)

    P.J. Stephens et. al., J. Phys. Chem., 98, 11623-11627, 1994

    Points   =           5000
    Deriv    =              1
    GGA      =           TRUE
    Meta     =          FALSE

    X_LRC        =          FALSE
    X_Hybrid     =           TRUE
    X_Alpha      =   2.000000E-01
    X_Omega      =   0.000000E+00
    C_LRC        =          FALSE
    C_Hybrid     =          FALSE
    C_Alpha      =   0.000000E+00
    C_Omega      =   0.000000E+00

   => Exchange Functionals <=

    0.8000    B3_X
    0.2000      HF 

   => Correlation Functionals <=

    0.1900 VWN3RPA_C
    0.8100   LYP_C

   => Molecular Quadrature <=

    Radial Scheme    =       TREUTLER
    Pruning Scheme   =           FLAT
    Nuclear Scheme   =       TREUTLER

    BS radius alpha  =              1
    Pruning alpha    =              1
    Radial Points    =             75
    Spherical Points =            302
    Total Points     =          88336
    Total Blocks     =             85
    Max Points       =           4367
    Max Functions    =             38


  -Total Gradient:
     Atom            X                  Y                   Z
    ------   -----------------  -----------------  -----------------
       1       -0.002066237689    -0.000307149394     0.000646765318
       2        0.002117541116     0.000381266016     0.000395093606
       3       -0.000061006520     0.000273406555    -0.000535328240
       4        0.000010283556    -0.000346682476    -0.000494570258


*** tstop() called on computer06 at Tue Dec 12 12:39:35 2017
Module time:
	user time   =       1.19 seconds =       0.02 minutes
	system time =       0.01 seconds =       0.00 minutes
	total time  =          1 seconds =       0.02 minutes
Total time:
	user time   =      18.07 seconds =       0.30 minutes
	system time =       0.19 seconds =       0.00 minutes
	total time  =         20 seconds =       0.33 minutes

			-----------------------------------------
			 OPTKING 2.0: for geometry optimizations 
			  - R.A. King,  Bethel University        
			-----------------------------------------
	At level 1: Red. Int., RFO, no backsteps, dynamic trust

	Previous internal coordinate definitions found.
	---Fragment 1 Geometry and Gradient---
	 O           1.9125906047       -0.0451794530        0.1113208278
	 O           4.6568253755       -0.1632205874       -0.0135518563
	 H           1.4785797800       -1.5829766517       -0.8022086571
	 H           4.9903454382        1.2288789216       -1.1705031198
	            -0.0020662377       -0.0003071494        0.0006467653
	             0.0021175411        0.0003812660        0.0003950936
	            -0.0000610065        0.0002734066       -0.0005353282
	             0.0000102836       -0.0003466825       -0.0004945703

	---Fragment 1 Intrafragment Coordinates---
	 - Coordinate -           - BOHR/RAD -       - ANG/DEG -
	 R(1,2)           =         2.749609	       1.455031
	 R(1,3)           =         1.840576	       0.973991
	 R(2,4)           =         1.840574	       0.973990
	 B(1,2,4)         =         1.748660	     100.190832
	 B(2,1,3)         =         1.748665	     100.191111
	*D(3,1,2,4)       =         1.919915	     110.003028

	Current energy   :      -151.5510689017

	Energy change for the previous step:
		Projected    :        -0.0012559756
		Actual       :        -0.0004086288

	Performing BFGS update.
	Previous computed or guess Hessian on step 1.
	Steps to be used in Hessian update: 2 1
	Taking RFO optimization step.
	Going to follow RFO solution 1.
	Using RFO vector 1.
	Norm of target step-size    0.00582
	Projected energy change by RFO approximation:        -0.0000146805

	Back-transformation to cartesian coordinates...
	Successfully converged to displaced geometry.

	Back-transformation to cartesian coordinates to adjust frozen coordinates...
	Successfully converged to displaced geometry.

	--- Internal Coordinate Step in ANG or DEG, aJ/ANG or AJ/DEG ---
	 ---------------------------------------------------------------------------
	   Coordinate                Previous        Force       Change         New 
	   ----------                --------       ------       ------       ------
	    1 R(1,2)          =      1.455031    -0.017523    -0.002914     1.452117
	    2 R(1,3)          =      0.973991    -0.000438    -0.000107     0.973884
	    3 R(2,4)          =      0.973990    -0.000429    -0.000104     0.973885
	    4 B(1,2,4)        =    100.190832    -0.000006     0.075847   100.266678
	    5 B(2,1,3)        =    100.191111    -0.000006     0.075528   100.266639
	    6 *D(3,1,2,4)     =    110.003028     0.000000     0.000000   110.003028
	 ---------------------------------------------------------------------------
	Successfully symmetrized geometry.

  ==> Convergence Check <==

  Measures of convergence in internal coordinates in au.
  Criteria marked as inactive (o), active & met (*), and active & unmet ( ).
  ---------------------------------------------------------------------------------------------
   Step     Total Energy     Delta E     MAX Force     RMS Force      MAX Disp      RMS Disp   
  ---------------------------------------------------------------------------------------------
    Convergence Criteria    1.00e-06 *    3.00e-04 *             o    1.20e-03 *             o
  ---------------------------------------------------------------------------------------------
      3    -151.55106890   -4.09e-04      2.13e-03      8.70e-04 o    5.51e-03      2.38e-03 o  ~
  ---------------------------------------------------------------------------------------------

	Writing optimization data to binary file.
	Structure for next step:
	Cartesian Geometry (in Angstrom)
	    O     1.0135464584  -0.0240075078   0.0587499270
	    O     2.4628269133  -0.0862875101  -0.0072027185
	    H     0.7826875711  -0.8374436587  -0.4244431234
	    H     2.6405320573   0.6500776766  -0.6192810851
			--------------------------
			 OPTKING Finished Execution 
			--------------------------

    Structure for next step:
    Molecular point group: c1
    Full point group: C1

    Geometry (in Angstrom), charge = 0, multiplicity = 1:

    O            1.013546458362    -0.024007507817     0.058749926990
    O            2.462826913256    -0.086287510079    -0.007202718507
    H            0.782687571089    -0.837443658742    -0.424443123371
    H            2.640532057292     0.650077676637    -0.619281085112

gradient() will perform analytic gradient computation.

*** tstart() called on computer06
*** at Tue Dec 12 12:39:35 2017

   => Loading Basis Set <=

    Name: CC-PVDZ
    Role: ORBITAL
    Keyword: BASIS
    atoms 1-2 entry O          line   190 file /shared/raimis/opt/miniconda/envs/htmd/share/psi4/basis/cc-pvdz.gbs 
    atoms 3-4 entry H          line    20 file /shared/raimis/opt/miniconda/envs/htmd/share/psi4/basis/cc-pvdz.gbs 


         ---------------------------------------------------------
                                   SCF
            by Justin Turney, Rob Parrish, and Andy Simmonett
                              RKS Reference
                        1 Threads,   4009 MiB Core
         ---------------------------------------------------------

  ==> Geometry <==

    Molecular point group: c1
    Full point group: C1

    Geometry (in Angstrom), charge = 0, multiplicity = 1:

       Center              X                  Y                   Z               Mass       
    ------------   -----------------  -----------------  -----------------  -----------------
           O          1.013546458362    -0.024007507817     0.058749926990    15.994914619560
           O          2.462826913256    -0.086287510079    -0.007202718507    15.994914619560
           H          0.782687571089    -0.837443658742    -0.424443123371     1.007825032070
           H          2.640532057292     0.650077676637    -0.619281085112     1.007825032070

  Running in c1 symmetry.

  Rotational constants: A =      9.31784  B =      0.13844  C =      0.13775 [cm^-1]
  Rotational constants: A = 279341.71402  B =   4150.43390  C =   4129.53129 [MHz]
  Nuclear repulsion =   36.724886985974500

  Charge       = 0
  Multiplicity = 1
  Electrons    = 18
  Nalpha       = 9
  Nbeta        = 9

  ==> Algorithm <==

  SCF Algorithm Type is DF.
  DIIS enabled.
  MOM disabled.
  Fractional occupation disabled.
  Guess Type is READ.
  Energy threshold   = 1.00e-08
  Density threshold  = 1.00e-08
  Integral threshold = 0.00e+00

  ==> Primary Basis <==

  Basis Set: CC-PVDZ
    Blend: CC-PVDZ
    Number of shells: 18
    Number of basis function: 38
    Number of Cartesian functions: 40
    Spherical Harmonics?: true
    Max angular momentum: 2

  ==> DFT Potential <==

   => B3LYP Composite Functional <= 

    B3LYP Hybrid-GGA Exchange-Correlation Functional (VWN1-RPA)

    P.J. Stephens et. al., J. Phys. Chem., 98, 11623-11627, 1994

    Points   =           5000
    Deriv    =              1
    GGA      =           TRUE
    Meta     =          FALSE

    X_LRC        =          FALSE
    X_Hybrid     =           TRUE
    X_Alpha      =   2.000000E-01
    X_Omega      =   0.000000E+00
    C_LRC        =          FALSE
    C_Hybrid     =          FALSE
    C_Alpha      =   0.000000E+00
    C_Omega      =   0.000000E+00

   => Exchange Functionals <=

    0.8000    B3_X
    0.2000      HF 

   => Correlation Functionals <=

    0.1900 VWN3RPA_C
    0.8100   LYP_C

   => Molecular Quadrature <=

    Radial Scheme    =       TREUTLER
    Pruning Scheme   =           FLAT
    Nuclear Scheme   =       TREUTLER

    BS radius alpha  =              1
    Pruning alpha    =              1
    Radial Points    =             75
    Spherical Points =            302
    Total Points     =          88336
    Total Blocks     =             85
    Max Points       =           4365
    Max Functions    =             38

   => -D3ZERO: Empirical Dispersion <=

    Grimme's -D3 (zero-damping) Dispersion Correction
    Grimme S.; Antony J.; Ehrlich S.; Krieg H. (2010), J. Chem. Phys., 132: 154104

        S6 =   1.000000E+00
        S8 =   1.703000E+00
       SR6 =   1.261000E+00
    ALPHA6 =   1.400000E+01

   => Loading Basis Set <=

    Name: (CC-PVDZ AUX)
    Role: JKFIT
    Keyword: DF_BASIS_SCF
    atoms 1-2 entry O          line   220 file /shared/raimis/opt/miniconda/envs/htmd/share/psi4/basis/cc-pvdz-jkfit.gbs 
    atoms 3-4 entry H          line    50 file /shared/raimis/opt/miniconda/envs/htmd/share/psi4/basis/cc-pvdz-jkfit.gbs 

  Reading orbitals from file 180, no projection.

  ==> Pre-Iterations <==

   -------------------------------------------------------
    Irrep   Nso     Nmo     Nalpha   Nbeta   Ndocc  Nsocc
   -------------------------------------------------------
     A         38      38       0       0       0       0
   -------------------------------------------------------
    Total      38      38       9       9       9       0
   -------------------------------------------------------

  ==> Integral Setup <==

  ==> DFJK: Density-Fitted J/K Matrices <==

    J tasked:                  Yes
    K tasked:                  Yes
    wK tasked:                  No
    OpenMP threads:              1
    Integrals threads:           1
    Memory (MB):              3006
    Algorithm:                Core
    Integral Cache:           NONE
    Schwarz Cutoff:          1E-12
    Fitting Condition:       1E-12

   => Auxiliary Basis Set <=

  Basis Set: (CC-PVDZ AUX)
    Blend: CC-PVDZ-JKFIT
    Number of shells: 66
    Number of basis function: 186
    Number of Cartesian functions: 212
    Spherical Harmonics?: true
    Max angular momentum: 3

  Minimum eigenvalue in the overlap matrix is 2.5603468956E-02.
  Using Symmetric Orthogonalization.

  SCF Guess: Orbitals guess was supplied from a previous computation.

  ==> Iterations <==

                           Total Energy        Delta E     RMS |[F,P]|

   @DF-RKS iter   0:  -151.55258733629151   -1.51553e+02   1.56068e-04 
   @DF-RKS iter   1:  -151.55107584538439    1.51149e-03   3.55322e-05 
   @DF-RKS iter   2:  -151.55107628889189   -4.43508e-07   1.77976e-05 DIIS
   @DF-RKS iter   3:  -151.55107643540020   -1.46508e-07   2.73560e-06 DIIS
   @DF-RKS iter   4:  -151.55107643932465   -3.92444e-09   3.50632e-07 DIIS
   @DF-RKS iter   5:  -151.55107643939627   -7.16227e-11   7.53872e-08 DIIS
   @DF-RKS iter   6:  -151.55107643939681   -5.40012e-13   6.92833e-08 DIIS
   @DF-RKS iter   7:  -151.55107643939920   -2.38742e-12   3.43238e-09 DIIS

  ==> Post-Iterations <==

    Orbital Energies (a.u.)
    -----------------------

    Doubly Occupied:                                                      

       1A    -19.187742     2A    -19.187703     3A     -1.109217  
       4A     -0.889309     5A     -0.523909     6A     -0.479049  
       7A     -0.410325     8A     -0.306107     9A     -0.272800  

    Virtual:                                                              

      10A      0.021745    11A      0.051018    12A      0.107112  
      13A      0.574409    14A      0.581617    15A      0.848452  
      16A      0.872525    17A      0.908436    18A      0.948742  
      19A      1.015201    20A      1.053759    21A      1.222349  
      22A      1.262507    23A      1.396483    24A      1.410042  
      25A      1.659308    26A      1.718462    27A      2.076952  
      28A      2.085152    29A      2.403959    30A      2.434851  
      31A      2.530412    32A      2.871656    33A      2.924243  
      34A      3.061472    35A      3.140738    36A      3.497979  
      37A      3.540635    38A      3.813822  

    Final Occupation by Irrep:
              A 
    DOCC [     9 ]

  Energy converged.

  @DF-RKS Final Energy:  -151.55107643939920

   => Energetics <=

    Nuclear Repulsion Energy =             36.7248869859745000
    One-Electron Energy =                -281.4355218453861198
    Two-Electron Energy =                 107.6215204556759772
    DFT Exchange-Correlation Energy =     -14.4616069656635400
    Empirical Dispersion Energy =          -0.0003550700000000
    PCM Polarization Energy =               0.0000000000000000
    EFP Energy =                            0.0000000000000000
    Total Energy =                       -151.5510764393991963



Properties will be evaluated at   0.000000,   0.000000,   0.000000 Bohr

Properties computed using the SCF density matrix

  Nuclear Dipole Moment: (a.u.)
     X:    59.0241      Y:    -2.0215      Z:    -1.1931

  Electronic Dipole Moment: (a.u.)
     X:   -59.0603      Y:     1.9691      Z:     0.4480

  Dipole Moment: (a.u.)
     X:    -0.0362      Y:    -0.0524      Z:    -0.7451     Total:     0.7478

  Dipole Moment: (Debye)
     X:    -0.0919      Y:    -0.1333      Z:    -1.8938     Total:     1.9007


*** tstop() called on computer06 at Tue Dec 12 12:39:39 2017
Module time:
	user time   =       3.90 seconds =       0.06 minutes
	system time =       0.04 seconds =       0.00 minutes
	total time  =          4 seconds =       0.07 minutes
Total time:
	user time   =      21.99 seconds =       0.37 minutes
	system time =       0.23 seconds =       0.00 minutes
	total time  =         24 seconds =       0.40 minutes

*** tstart() called on computer06
*** at Tue Dec 12 12:39:39 2017


         ------------------------------------------------------------
                                   SCF GRAD                          
                          Rob Parrish, Justin Turney,                
                       Andy Simmonett, and Alex Sokolov              
         ------------------------------------------------------------

  ==> Geometry <==

    Molecular point group: c1
    Full point group: C1

    Geometry (in Angstrom), charge = 0, multiplicity = 1:

       Center              X                  Y                   Z               Mass       
    ------------   -----------------  -----------------  -----------------  -----------------
           O          1.013546458362    -0.024007507817     0.058749926990    15.994914619560
           O          2.462826913256    -0.086287510079    -0.007202718507    15.994914619560
           H          0.782687571089    -0.837443658742    -0.424443123371     1.007825032070
           H          2.640532057292     0.650077676637    -0.619281085112     1.007825032070

  Nuclear repulsion =   36.724886985974500

  ==> Basis Set <==

  Basis Set: CC-PVDZ
    Blend: CC-PVDZ
    Number of shells: 18
    Number of basis function: 38
    Number of Cartesian functions: 40
    Spherical Harmonics?: true
    Max angular momentum: 2

  ==> DFJKGrad: Density-Fitted SCF Gradients <==

    Gradient:                    1
    J tasked:                  Yes
    K tasked:                  Yes
    wK tasked:                  No
    OpenMP threads:              1
    Integrals threads:           1
    Memory (MB):              3006
    Schwarz Cutoff:          0E+00
    Fitting Condition:       1E-12

   => Auxiliary Basis Set <=

  Basis Set: (CC-PVDZ AUX)
    Blend: CC-PVDZ-JKFIT
    Number of shells: 66
    Number of basis function: 186
    Number of Cartesian functions: 212
    Spherical Harmonics?: true
    Max angular momentum: 3

  ==> DFT Potential <==

   => B3LYP Composite Functional <= 

    B3LYP Hybrid-GGA Exchange-Correlation Functional (VWN1-RPA)

    P.J. Stephens et. al., J. Phys. Chem., 98, 11623-11627, 1994

    Points   =           5000
    Deriv    =              1
    GGA      =           TRUE
    Meta     =          FALSE

    X_LRC        =          FALSE
    X_Hybrid     =           TRUE
    X_Alpha      =   2.000000E-01
    X_Omega      =   0.000000E+00
    C_LRC        =          FALSE
    C_Hybrid     =          FALSE
    C_Alpha      =   0.000000E+00
    C_Omega      =   0.000000E+00

   => Exchange Functionals <=

    0.8000    B3_X
    0.2000      HF 

   => Correlation Functionals <=

    0.1900 VWN3RPA_C
    0.8100   LYP_C

   => Molecular Quadrature <=

    Radial Scheme    =       TREUTLER
    Pruning Scheme   =           FLAT
    Nuclear Scheme   =       TREUTLER

    BS radius alpha  =              1
    Pruning alpha    =              1
    Radial Points    =             75
    Spherical Points =            302
    Total Points     =          88336
    Total Blocks     =             85
    Max Points       =           4365
    Max Functions    =             38


  -Total Gradient:
     Atom            X                  Y                   Z
    ------   -----------------  -----------------  -----------------
       1       -0.000619371762    -0.000388107648     0.000525053398
       2        0.000664118957     0.000452379745     0.000404377223
       3       -0.000009486621     0.000326755751    -0.000484625022
       4       -0.000034724366    -0.000390250044    -0.000433745985


*** tstop() called on computer06 at Tue Dec 12 12:39:41 2017
Module time:
	user time   =       1.43 seconds =       0.02 minutes
	system time =       0.02 seconds =       0.00 minutes
	total time  =          2 seconds =       0.03 minutes
Total time:
	user time   =      23.42 seconds =       0.39 minutes
	system time =       0.25 seconds =       0.00 minutes
	total time  =         26 seconds =       0.43 minutes

			-----------------------------------------
			 OPTKING 2.0: for geometry optimizations 
			  - R.A. King,  Bethel University        
			-----------------------------------------
	At level 1: Red. Int., RFO, no backsteps, dynamic trust

	Previous internal coordinate definitions found.
	---Fragment 1 Geometry and Gradient---
	 O           1.9153252293       -0.0453676149        0.1110212723
	 O           4.6540683788       -0.1630597627       -0.0136111654
	 H           1.4790651570       -1.5825391667       -0.8020812622
	 H           4.9898824334        1.2284687739       -1.1702716501
	            -0.0006193718       -0.0003881076        0.0005250534
	             0.0006641190        0.0004523797        0.0004043772
	            -0.0000094866        0.0003267558       -0.0004846250
	            -0.0000347244       -0.0003902500       -0.0004337460

	---Fragment 1 Intrafragment Coordinates---
	 - Coordinate -           - BOHR/RAD -       - ANG/DEG -
	 R(1,2)           =         2.744103	       1.452117
	 R(1,3)           =         1.840374	       0.973884
	 R(2,4)           =         1.840377	       0.973885
	 B(1,2,4)         =         1.749984	     100.266678
	 B(2,1,3)         =         1.749983	     100.266639
	*D(3,1,2,4)       =         1.919915	     110.003028

	Current energy   :      -151.5510764394

	Energy change for the previous step:
		Projected    :        -0.0000146805
		Actual       :        -0.0000075377

	Performing BFGS update.
	Previous computed or guess Hessian on step 1.
	Steps to be used in Hessian update: 3 2
	Taking RFO optimization step.
	Going to follow RFO solution 1.
	Using RFO vector 1.
	Norm of target step-size    0.00251
	Projected energy change by RFO approximation:        -0.0000018533

	Back-transformation to cartesian coordinates...
	Successfully converged to displaced geometry.

	Back-transformation to cartesian coordinates to adjust frozen coordinates...
	Successfully converged to displaced geometry.

	--- Internal Coordinate Step in ANG or DEG, aJ/ANG or AJ/DEG ---
	 ---------------------------------------------------------------------------
	   Coordinate                Previous        Force       Change         New 
	   ----------                --------       ------       ------       ------
	    1 R(1,2)          =      1.452117    -0.005167    -0.001253     1.450863
	    2 R(1,3)          =      0.973884     0.000238     0.000017     0.973901
	    3 R(2,4)          =      0.973885     0.000227     0.000016     0.973901
	    4 B(1,2,4)        =    100.266678    -0.000001     0.033100   100.299778
	    5 B(2,1,3)        =    100.266639    -0.000001     0.033148   100.299787
	    6 *D(3,1,2,4)     =    110.003028    -0.000000     0.000000   110.003028
	 ---------------------------------------------------------------------------
	Successfully symmetrized geometry.

  ==> Convergence Check <==

  Measures of convergence in internal coordinates in au.
  Criteria marked as inactive (o), active & met (*), and active & unmet ( ).
  ---------------------------------------------------------------------------------------------
   Step     Total Energy     Delta E     MAX Force     RMS Force      MAX Disp      RMS Disp   
  ---------------------------------------------------------------------------------------------
    Convergence Criteria    1.00e-06 *    3.00e-04 *             o    1.20e-03 *             o
  ---------------------------------------------------------------------------------------------
      4    -151.55107644   -7.54e-06      6.27e-04      2.57e-04 o    2.37e-03      1.02e-03 o  ~
  ---------------------------------------------------------------------------------------------

	Writing optimization data to binary file.
	Structure for next step:
	Cartesian Geometry (in Angstrom)
	    O     1.0141708036  -0.0240386288   0.0586975243
	    O     2.4622007783  -0.0862592845  -0.0071986634
	    H     0.7827636401  -0.8373798377  -0.4244271721
	    H     2.6404577780   0.6500167510  -0.6192486887
			--------------------------
			 OPTKING Finished Execution 
			--------------------------

    Structure for next step:
    Molecular point group: c1
    Full point group: C1

    Geometry (in Angstrom), charge = 0, multiplicity = 1:

    O            1.014170803552    -0.024038628801     0.058697524272
    O            2.462200778338    -0.086259284536    -0.007198663423
    H            0.782763640065    -0.837379837664    -0.424427172103
    H            2.640457778046     0.650016751002    -0.619248688745

gradient() will perform analytic gradient computation.

*** tstart() called on computer06
*** at Tue Dec 12 12:39:41 2017

   => Loading Basis Set <=

    Name: CC-PVDZ
    Role: ORBITAL
    Keyword: BASIS
    atoms 1-2 entry O          line   190 file /shared/raimis/opt/miniconda/envs/htmd/share/psi4/basis/cc-pvdz.gbs 
    atoms 3-4 entry H          line    20 file /shared/raimis/opt/miniconda/envs/htmd/share/psi4/basis/cc-pvdz.gbs 


         ---------------------------------------------------------
                                   SCF
            by Justin Turney, Rob Parrish, and Andy Simmonett
                              RKS Reference
                        1 Threads,   4009 MiB Core
         ---------------------------------------------------------

  ==> Geometry <==

    Molecular point group: c1
    Full point group: C1

    Geometry (in Angstrom), charge = 0, multiplicity = 1:

       Center              X                  Y                   Z               Mass       
    ------------   -----------------  -----------------  -----------------  -----------------
           O          1.014170803552    -0.024038628801     0.058697524272    15.994914619560
           O          2.462200778338    -0.086259284536    -0.007198663423    15.994914619560
           H          0.782763640065    -0.837379837664    -0.424427172103     1.007825032070
           H          2.640457778046     0.650016751002    -0.619248688745     1.007825032070

  Running in c1 symmetry.

  Rotational constants: A =      9.31972  B =      0.13848  C =      0.13778 [cm^-1]
  Rotational constants: A = 279398.24253  B =   4151.44081  C =   4130.52999 [MHz]
  Nuclear repulsion =   36.746432855731413

  Charge       = 0
  Multiplicity = 1
  Electrons    = 18
  Nalpha       = 9
  Nbeta        = 9

  ==> Algorithm <==

  SCF Algorithm Type is DF.
  DIIS enabled.
  MOM disabled.
  Fractional occupation disabled.
  Guess Type is READ.
  Energy threshold   = 1.00e-08
  Density threshold  = 1.00e-08
  Integral threshold = 0.00e+00

  ==> Primary Basis <==

  Basis Set: CC-PVDZ
    Blend: CC-PVDZ
    Number of shells: 18
    Number of basis function: 38
    Number of Cartesian functions: 40
    Spherical Harmonics?: true
    Max angular momentum: 2

  ==> DFT Potential <==

   => B3LYP Composite Functional <= 

    B3LYP Hybrid-GGA Exchange-Correlation Functional (VWN1-RPA)

    P.J. Stephens et. al., J. Phys. Chem., 98, 11623-11627, 1994

    Points   =           5000
    Deriv    =              1
    GGA      =           TRUE
    Meta     =          FALSE

    X_LRC        =          FALSE
    X_Hybrid     =           TRUE
    X_Alpha      =   2.000000E-01
    X_Omega      =   0.000000E+00
    C_LRC        =          FALSE
    C_Hybrid     =          FALSE
    C_Alpha      =   0.000000E+00
    C_Omega      =   0.000000E+00

   => Exchange Functionals <=

    0.8000    B3_X
    0.2000      HF 

   => Correlation Functionals <=

    0.1900 VWN3RPA_C
    0.8100   LYP_C

   => Molecular Quadrature <=

    Radial Scheme    =       TREUTLER
    Pruning Scheme   =           FLAT
    Nuclear Scheme   =       TREUTLER

    BS radius alpha  =              1
    Pruning alpha    =              1
    Radial Points    =             75
    Spherical Points =            302
    Total Points     =          88336
    Total Blocks     =             85
    Max Points       =           4365
    Max Functions    =             38

   => -D3ZERO: Empirical Dispersion <=

    Grimme's -D3 (zero-damping) Dispersion Correction
    Grimme S.; Antony J.; Ehrlich S.; Krieg H. (2010), J. Chem. Phys., 132: 154104

        S6 =   1.000000E+00
        S8 =   1.703000E+00
       SR6 =   1.261000E+00
    ALPHA6 =   1.400000E+01

   => Loading Basis Set <=

    Name: (CC-PVDZ AUX)
    Role: JKFIT
    Keyword: DF_BASIS_SCF
    atoms 1-2 entry O          line   220 file /shared/raimis/opt/miniconda/envs/htmd/share/psi4/basis/cc-pvdz-jkfit.gbs 
    atoms 3-4 entry H          line    50 file /shared/raimis/opt/miniconda/envs/htmd/share/psi4/basis/cc-pvdz-jkfit.gbs 

  Reading orbitals from file 180, no projection.

  ==> Pre-Iterations <==

   -------------------------------------------------------
    Irrep   Nso     Nmo     Nalpha   Nbeta   Ndocc  Nsocc
   -------------------------------------------------------
     A         38      38       0       0       0       0
   -------------------------------------------------------
    Total      38      38       9       9       9       0
   -------------------------------------------------------

  ==> Integral Setup <==

  ==> DFJK: Density-Fitted J/K Matrices <==

    J tasked:                  Yes
    K tasked:                  Yes
    wK tasked:                  No
    OpenMP threads:              1
    Integrals threads:           1
    Memory (MB):              3006
    Algorithm:                Core
    Integral Cache:           NONE
    Schwarz Cutoff:          1E-12
    Fitting Condition:       1E-12

   => Auxiliary Basis Set <=

  Basis Set: (CC-PVDZ AUX)
    Blend: CC-PVDZ-JKFIT
    Number of shells: 66
    Number of basis function: 186
    Number of Cartesian functions: 212
    Spherical Harmonics?: true
    Max angular momentum: 3

  Minimum eigenvalue in the overlap matrix is 2.5540220303E-02.
  Using Symmetric Orthogonalization.

  SCF Guess: Orbitals guess was supplied from a previous computation.

  ==> Iterations <==

                           Total Energy        Delta E     RMS |[F,P]|

   @DF-RKS iter   0:  -151.55166216537881   -1.51552e+02   6.81880e-05 
   @DF-RKS iter   1:  -151.55107705608685    5.85109e-04   1.53066e-05 
   @DF-RKS iter   2:  -151.55107714004171   -8.39549e-08   7.54049e-06 DIIS
   @DF-RKS iter   3:  -151.55107716652557   -2.64839e-08   8.95398e-07 DIIS
   @DF-RKS iter   4:  -151.55107716693689   -4.11319e-10   1.73864e-07 DIIS
   @DF-RKS iter   5:  -151.55107716695437   -1.74794e-11   2.79079e-08 DIIS
   @DF-RKS iter   6:  -151.55107716695449   -1.13687e-13   2.59433e-08 DIIS
   @DF-RKS iter   7:  -151.55107716695474   -2.55795e-13   1.57814e-09 DIIS

  ==> Post-Iterations <==

    Orbital Energies (a.u.)
    -----------------------

    Doubly Occupied:                                                      

       1A    -19.187653     2A    -19.187614     3A     -1.109682  
       4A     -0.889094     5A     -0.524200     6A     -0.479138  
       7A     -0.410450     8A     -0.305972     9A     -0.272634  

    Virtual:                                                              

      10A      0.022362    11A      0.051030    12A      0.107358  
      13A      0.574423    14A      0.581620    15A      0.848444  
      16A      0.872668    17A      0.908250    18A      0.948723  
      19A      1.015256    20A      1.053651    21A      1.222334  
      22A      1.262467    23A      1.396624    24A      1.410146  
      25A      1.659633    26A      1.718604    27A      2.077295  
      28A      2.085224    29A      2.404602    30A      2.434397  
      31A      2.529711    32A      2.871356    33A      2.924387  
      34A      3.062912    35A      3.142021    36A      3.498301  
      37A      3.540546    38A      3.814896  

    Final Occupation by Irrep:
              A 
    DOCC [     9 ]

  Energy converged.

  @DF-RKS Final Energy:  -151.55107716695474

   => Energetics <=

    Nuclear Repulsion Energy =             36.7464328557314133
    One-Electron Energy =                -281.4777731297706964
    Two-Electron Energy =                 107.6426712828054519
    DFT Exchange-Correlation Energy =     -14.4620536657209477
    Empirical Dispersion Energy =          -0.0003545100000000
    PCM Polarization Energy =               0.0000000000000000
    EFP Energy =                            0.0000000000000000
    Total Energy =                       -151.5510771669547694



Properties will be evaluated at   0.000000,   0.000000,   0.000000 Bohr

Properties computed using the SCF density matrix

  Nuclear Dipole Moment: (a.u.)
     X:    59.0241      Y:    -2.0215      Z:    -1.1937

  Electronic Dipole Moment: (a.u.)
     X:   -59.0602      Y:     1.9691      Z:     0.4487

  Dipole Moment: (a.u.)
     X:    -0.0362      Y:    -0.0524      Z:    -0.7450     Total:     0.7477

  Dipole Moment: (Debye)
     X:    -0.0919      Y:    -0.1333      Z:    -1.8937     Total:     1.9006


*** tstop() called on computer06 at Tue Dec 12 12:39:45 2017
Module time:
	user time   =       3.87 seconds =       0.06 minutes
	system time =       0.03 seconds =       0.00 minutes
	total time  =          4 seconds =       0.07 minutes
Total time:
	user time   =      27.31 seconds =       0.46 minutes
	system time =       0.29 seconds =       0.00 minutes
	total time  =         30 seconds =       0.50 minutes

*** tstart() called on computer06
*** at Tue Dec 12 12:39:45 2017


         ------------------------------------------------------------
                                   SCF GRAD                          
                          Rob Parrish, Justin Turney,                
                       Andy Simmonett, and Alex Sokolov              
         ------------------------------------------------------------

  ==> Geometry <==

    Molecular point group: c1
    Full point group: C1

    Geometry (in Angstrom), charge = 0, multiplicity = 1:

       Center              X                  Y                   Z               Mass       
    ------------   -----------------  -----------------  -----------------  -----------------
           O          1.014170803552    -0.024038628801     0.058697524272    15.994914619560
           O          2.462200778338    -0.086259284536    -0.007198663423    15.994914619560
           H          0.782763640065    -0.837379837664    -0.424427172103     1.007825032070
           H          2.640457778046     0.650016751002    -0.619248688745     1.007825032070

  Nuclear repulsion =   36.746432855731413

  ==> Basis Set <==

  Basis Set: CC-PVDZ
    Blend: CC-PVDZ
    Number of shells: 18
    Number of basis function: 38
    Number of Cartesian functions: 40
    Spherical Harmonics?: true
    Max angular momentum: 2

  ==> DFJKGrad: Density-Fitted SCF Gradients <==

    Gradient:                    1
    J tasked:                  Yes
    K tasked:                  Yes
    wK tasked:                  No
    OpenMP threads:              1
    Integrals threads:           1
    Memory (MB):              3006
    Schwarz Cutoff:          0E+00
    Fitting Condition:       1E-12

   => Auxiliary Basis Set <=

  Basis Set: (CC-PVDZ AUX)
    Blend: CC-PVDZ-JKFIT
    Number of shells: 66
    Number of basis function: 186
    Number of Cartesian functions: 212
    Spherical Harmonics?: true
    Max angular momentum: 3

  ==> DFT Potential <==

   => B3LYP Composite Functional <= 

    B3LYP Hybrid-GGA Exchange-Correlation Functional (VWN1-RPA)

    P.J. Stephens et. al., J. Phys. Chem., 98, 11623-11627, 1994

    Points   =           5000
    Deriv    =              1
    GGA      =           TRUE
    Meta     =          FALSE

    X_LRC        =          FALSE
    X_Hybrid     =           TRUE
    X_Alpha      =   2.000000E-01
    X_Omega      =   0.000000E+00
    C_LRC        =          FALSE
    C_Hybrid     =          FALSE
    C_Alpha      =   0.000000E+00
    C_Omega      =   0.000000E+00

   => Exchange Functionals <=

    0.8000    B3_X
    0.2000      HF 

   => Correlation Functionals <=

    0.1900 VWN3RPA_C
    0.8100   LYP_C

   => Molecular Quadrature <=

    Radial Scheme    =       TREUTLER
    Pruning Scheme   =           FLAT
    Nuclear Scheme   =       TREUTLER

    BS radius alpha  =              1
    Pruning alpha    =              1
    Radial Points    =             75
    Spherical Points =            302
    Total Points     =          88336
    Total Blocks     =             85
    Max Points       =           4365
    Max Functions    =             38


  -Total Gradient:
     Atom            X                  Y                   Z
    ------   -----------------  -----------------  -----------------
       1        0.000024437923    -0.000374974533     0.000500506839
       2        0.000021336280     0.000441190500     0.000443384139
       3       -0.000001713832     0.000301014945    -0.000491045004
       4       -0.000043543247    -0.000366481081    -0.000442187926


*** tstop() called on computer06 at Tue Dec 12 12:39:46 2017
Module time:
	user time   =       1.14 seconds =       0.02 minutes
	system time =       0.01 seconds =       0.00 minutes
	total time  =          1 seconds =       0.02 minutes
Total time:
	user time   =      28.45 seconds =       0.47 minutes
	system time =       0.31 seconds =       0.01 minutes
	total time  =         31 seconds =       0.52 minutes

			-----------------------------------------
			 OPTKING 2.0: for geometry optimizations 
			  - R.A. King,  Bethel University        
			-----------------------------------------
	At level 1: Red. Int., RFO, no backsteps, dynamic trust

	Previous internal coordinate definitions found.
	---Fragment 1 Geometry and Gradient---
	 O           1.9165050707       -0.0454264250        0.1109222456
	 O           4.6528851552       -0.1630064242       -0.0136035024
	 H           1.4792089065       -1.5824185624       -0.8020511186
	 H           4.9897420660        1.2283536412       -1.1702104299
	             0.0000244379       -0.0003749745        0.0005005068
	             0.0000213363        0.0004411905        0.0004433841
	            -0.0000017138        0.0003010149       -0.0004910450
	            -0.0000435432       -0.0003664811       -0.0004421879

	---Fragment 1 Intrafragment Coordinates---
	 - Coordinate -           - BOHR/RAD -       - ANG/DEG -
	 R(1,2)           =         2.741734	       1.450863
	 R(1,3)           =         1.840406	       0.973901
	 R(2,4)           =         1.840406	       0.973901
	 B(1,2,4)         =         1.750561	     100.299778
	 B(2,1,3)         =         1.750562	     100.299787
	*D(3,1,2,4)       =         1.919915	     110.003028

	Current energy   :      -151.5510771670

	Energy change for the previous step:
		Projected    :        -0.0000018533
		Actual       :        -0.0000007276

	Performing BFGS update.
	Previous computed or guess Hessian on step 1.
	Steps to be used in Hessian update: 4 3
	Taking RFO optimization step.
	Going to follow RFO solution 1.
	Using RFO vector 1.
	Norm of target step-size    0.00008
	Projected energy change by RFO approximation:        -0.0000000037

	Back-transformation to cartesian coordinates...
	Successfully converged to displaced geometry.

	Back-transformation to cartesian coordinates to adjust frozen coordinates...
	Successfully converged to displaced geometry.

	--- Internal Coordinate Step in ANG or DEG, aJ/ANG or AJ/DEG ---
	 ---------------------------------------------------------------------------
	   Coordinate                Previous        Force       Change         New 
	   ----------                --------       ------       ------       ------
	    1 R(1,2)          =      1.450863     0.000206     0.000037     1.450900
	    2 R(1,3)          =      0.973901     0.000051     0.000007     0.973908
	    3 R(2,4)          =      0.973901     0.000049     0.000007     0.973908
	    4 B(1,2,4)        =    100.299778     0.000001     0.001700   100.301478
	    5 B(2,1,3)        =    100.299787     0.000001     0.001686   100.301473
	    6 *D(3,1,2,4)     =    110.003028    -0.000000     0.000000   110.003028
	 ---------------------------------------------------------------------------
	Successfully symmetrized geometry.

  ==> Convergence Check <==

  Measures of convergence in internal coordinates in au.
  Criteria marked as inactive (o), active & met (*), and active & unmet ( ).
  ---------------------------------------------------------------------------------------------
   Step     Total Energy     Delta E     MAX Force     RMS Force      MAX Disp      RMS Disp   
  ---------------------------------------------------------------------------------------------
    Convergence Criteria    1.00e-06 *    3.00e-04 *             o    1.20e-03 *             o
  ---------------------------------------------------------------------------------------------
      5    -151.55107717   -7.28e-07 *    2.50e-05 *    1.27e-05 o    6.91e-05 *    3.38e-05 o  ~
  ---------------------------------------------------------------------------------------------


  **** Optimization is complete! (in 5 steps) ****

  ==> Optimization Summary <==

  Measures of convergence in internal coordinates in au.
  --------------------------------------------------------------------------------------------------------------- ~
   Step         Total Energy             Delta E       MAX Force       RMS Force        MAX Disp        RMS Disp  ~
  --------------------------------------------------------------------------------------------------------------- ~
      1    -151.550078708342   -151.550078708342      0.01549386      0.00968940      0.09473023      0.05548663  ~
      2    -151.550660272892     -0.000581564549      0.01159918      0.00690633      0.03153844      0.01974494  ~
      3    -151.551068901659     -0.000408628768      0.00212696      0.00086987      0.00550678      0.00237679  ~
      4    -151.551076439399     -0.000007537740      0.00062718      0.00025668      0.00236811      0.00102293  ~
      5    -151.551077166955     -0.000000727556      0.00002503      0.00001271      0.00006907      0.00003377  ~
  --------------------------------------------------------------------------------------------------------------- ~

	Writing optimization data to binary file.
	Final energy is   -151.5510771669547
	Final (previous) structure:
	Cartesian Geometry (in Angstrom)
	    O     1.0141708036  -0.0240386288   0.0586975243
	    O     2.4622007783  -0.0862592845  -0.0071986634
	    H     0.7827636401  -0.8373798377  -0.4244271721
	    H     2.6404577780   0.6500167510  -0.6192486887
	Saving final (previous) structure.
			--------------------------
			 OPTKING Finished Execution 
			--------------------------

    Final optimized geometry and variables:
    Molecular point group: c1
    Full point group: C1

    Geometry (in Angstrom), charge = 0, multiplicity = 1:

    O            1.014170803552    -0.024038628801     0.058697524272
    O            2.462200778338    -0.086259284536    -0.007198663423
    H            0.782763640065    -0.837379837664    -0.424427172103
    H            2.640457778046     0.650016751002    -0.619248688745

	Cleaning optimization helper files.


Properties will be evaluated at   0.000000,   0.000000,   0.000000 Bohr

Properties computed using the  density matrix

  Nuclear Dipole Moment: (a.u.)
     X:    59.0241      Y:    -2.0215      Z:    -1.1937

  Electronic Dipole Moment: (a.u.)
     X:   -59.0602      Y:     1.9691      Z:     0.4487

  Dipole Moment: (a.u.)
     X:    -0.0362      Y:    -0.0524      Z:    -0.7450     Total:     0.7477

  Dipole Moment: (Debye)
     X:    -0.0919      Y:    -0.1333      Z:    -1.8937     Total:     1.9006

  Quadrupole Moment: (Debye Ang)
    XX:   -11.0758     YY:    -9.6364     ZZ:   -10.9879
    XY:     2.5792     XZ:    -3.4991     YZ:    -0.1242

  Traceless Quadrupole Moment: (Debye Ang)
    XX:    -0.5091     YY:     0.9303     ZZ:    -0.4212
    XY:     2.5792     XZ:    -3.4991     YZ:    -0.1242

  Mulliken Charges: (a.u.)
   Center  Symbol    Alpha    Beta     Spin     Total
       1     O     4.08927  4.08927  0.00000 -0.17855
       2     O     4.08927  4.08927  0.00000 -0.17855
       3     H     0.41073  0.41073  0.00000  0.17855
       4     H     0.41073  0.41073  0.00000  0.17855

   Total alpha =  9.00000, Total beta =  9.00000, Total charge =  0.00000


*** Psi4 exiting successfully. Buy a developer a beer!
