    -----------------------------------------------------------------------
          Psi4: An Open-Source Ab Initio Electronic Structure Package
                              Psi4 (no tag) Driver

                          Git: Rev {detached?}  

    J. M. Turney, A. C. Simmonett, R. M. Parrish, E. G. Hohenstein,
    F. A. Evangelista, J. T. Fermann, B. J. Mintz, L. A. Burns, J. J. Wilke,
    M. L. Abrams, N. J. Russ, M. L. Leininger, C. L. Janssen, E. T. Seidl,
    W. D. Allen, H. F. Schaefer, R. A. King, E. F. Valeev, C. D. Sherrill,
    and T. D. Crawford, WIREs Comput. Mol. Sci. 2, 556-565 (2012)
    (doi: 10.1002/wcms.93)

                         Additional Contributions by
    A. E. DePrince, M. Saitow, U. Bozkaya, A. Yu. Sokolov
    -----------------------------------------------------------------------


    Psi4 started on: Tue Jul  5 17:20:09 2016

    Process ID:  20688
    PSI4DATADIR: /export131/home/mjharvey/miniconda3/share
    Memory level set to 256.000 MB

  ==> Input File <==

--------------------------------------------------------------------------
set {
	reference rhf
	basis 6-31G*
}


set_num_threads( 1 )
memory 2 gb

molecule MOL {
0 1

H	 -2.646374	 -0.642757	 1.268656
C	 -2.083525	 -0.384536	 0.393091
O	 -0.807605	 -0.127164	 0.768327
F	 -2.118945	 -1.383102	 -0.486752
F	 -2.621877	 0.670592	 -0.209486
C	 0.091243	 0.244859	 -0.214708
C	 -0.547489	 1.388948	 -0.991395
Cl	 0.449366	 -1.115995	 -1.290366
H	 1.024101	 0.592457	 0.193612
F	 -1.579264	 0.954834	 -1.683583
F	 0.338673	 1.873713	 -1.838247
F	 -0.944699	 2.359583	 -0.205223

	symmetry c1
}
set optking {
	frozen_dihedral = ("
		10 7 6 9,
		9 6 3 2
	")
}

ee = energy('scf')
oeprop('DIPOLE', 'QUADRUPOLE', 'MULLIKEN_CHARGES')
f=open( 'psi4out.xyz', 'w' )
f.write( "12  " )
f.write( str(ee) + "\n" )
f.write( MOL.save_string_xyz() )
f.close()
--------------------------------------------------------------------------

  Memory set to   2.000 GiB by Python script.

*** tstart() called on cx1-3-4-4.cx1.hpc.ic.ac.uk
*** at Tue Jul  5 17:20:09 2016


         ---------------------------------------------------------
                                   SCF
            by Justin Turney, Rob Parrish, and Andy Simmonett
                              RHF Reference
                        1 Threads,   2000 MiB Core
         ---------------------------------------------------------

  ==> Geometry <==

    Molecular point group: c1
    Full point group: C1

    Geometry (in Angstrom), charge = 0, multiplicity = 1:

       Center              X                  Y                   Z               Mass       
    ------------   -----------------  -----------------  -----------------  -----------------
           H         -1.771776001782    -0.962976007107     1.948931144487     1.007825032070
           C         -1.208927001782    -0.704755007107     1.073366144487    12.000000000000
           O          0.066992998218    -0.447383007107     1.448602144487    15.994914619560
           F         -1.244347001782    -1.703321007107     0.193523144487    18.998403224000
           F         -1.747279001782     0.350372992893     0.470789144487    18.998403224000
           C          0.965840998218    -0.075360007107     0.465567144487    12.000000000000
           C          0.327108998218     1.068728992893    -0.311119855513    12.000000000000
          CL          1.323963998218    -1.436214007107    -0.610090855513    34.968852682000
           H          1.898698998218     0.272237992893     0.873887144487     1.007825032070
           F         -0.704666001782     0.634614992893    -1.003307855513    18.998403224000
           F          1.213270998218     1.553493992893    -1.157971855513    18.998403224000
           F         -0.070101001782     2.039363992893     0.475052144487    18.998403224000

  Running in c1 symmetry.

  Rotational constants: A =      0.04997  B =      0.04491  C =      0.03061 [cm^-1]
  Rotational constants: A =   1498.04089  B =   1346.28767  C =    917.74090 [MHz]
  Nuclear repulsion =  793.075983044373288

  Charge       = 0
  Multiplicity = 1
  Electrons    = 90
  Nalpha       = 45
  Nbeta        = 45

  ==> Algorithm <==

  SCF Algorithm Type is DF.
  DIIS enabled.
  MOM disabled.
  Fractional occupation disabled.
  Guess Type is CORE.
  Energy threshold   = 1.00e-06
  Density threshold  = 1.00e-06
  Integral threshold = 0.00e+00

  ==> Primary Basis <==

  Basis Set: 6-31G*
    Number of shells: 66
    Number of basis function: 158
    Number of Cartesian functions: 158
    Spherical Harmonics?: false
    Max angular momentum: 2

  ==> Pre-Iterations <==

   -------------------------------------------------------
    Irrep   Nso     Nmo     Nalpha   Nbeta   Ndocc  Nsocc
   -------------------------------------------------------
     A        158     158       0       0       0       0
   -------------------------------------------------------
    Total     158     158      45      45      45       0
   -------------------------------------------------------

 OEINTS: Overlap, kinetic, potential, dipole, and quadrupole integrals
         stored in file 35.

  ==> Integral Setup <==

  ==> DFJK: Density-Fitted J/K Matrices <==

    J tasked:                  Yes
    K tasked:                  Yes
    wK tasked:                  No
    OpenMP threads:              1
    Integrals threads:           1
    Memory (MB):              1430
    Algorithm:                Core
    Integral Cache:           NONE
    Schwarz Cutoff:          1E-12
    Fitting Condition:       1E-12

   => Auxiliary Basis Set <=

  Basis Set: 
    Number of shells: 270
    Number of basis function: 909
    Number of Cartesian functions: 909
    Spherical Harmonics?: false
    Max angular momentum: 3

  Minimum eigenvalue in the overlap matrix is 1.4368433809E-03.
  Using Symmetric Orthogonalization.
  SCF Guess: Core (One-Electron) Hamiltonian.

  ==> Iterations <==

                           Total Energy        Delta E     RMS |[F,P]|

   @DF-RHF iter   1: -1067.89311546975682   -1.06789e+03   6.78191e-02 
   @DF-RHF iter   2: -1017.76471977628285    5.01284e+01   6.94321e-02 DIIS
   @DF-RHF iter   3: -1104.94392706297981   -8.71792e+01   4.32000e-02 DIIS
   @DF-RHF iter   4: -1098.59009748632002    6.35383e+00   5.49840e-02 DIIS
   @DF-RHF iter   5: -1144.92414545003635   -4.63340e+01   1.23216e-02 DIIS
   @DF-RHF iter   6: -1146.08782971380492   -1.16368e+00   4.36015e-03 DIIS
   @DF-RHF iter   7: -1146.22427688439825   -1.36447e-01   1.08498e-03 DIIS
   @DF-RHF iter   8: -1146.23626425201246   -1.19874e-02   3.18996e-04 DIIS
   @DF-RHF iter   9: -1146.23740022522611   -1.13597e-03   1.08024e-04 DIIS
   @DF-RHF iter  10: -1146.23754386483847   -1.43640e-04   2.70637e-05 DIIS
   @DF-RHF iter  11: -1146.23755394830073   -1.00835e-05   9.60289e-06 DIIS
   @DF-RHF iter  12: -1146.23755550447459   -1.55617e-06   2.67025e-06 DIIS
   @DF-RHF iter  13: -1146.23755565656643   -1.52092e-07   7.31558e-07 DIIS

  ==> Post-Iterations <==

    Orbital Energies (a.u.)
    -----------------------

    Doubly Occupied:                                                      

       1A   -104.838105     2A    -26.358893     3A    -26.353103  
       4A    -26.331996     5A    -26.331620     6A    -26.321386  
       7A    -20.646873     8A    -11.520698     9A    -11.481395  
      10A    -11.399810    11A    -10.573177    12A     -8.042530  
      13A     -8.038967    14A     -8.038823    15A     -1.763363  
      16A     -1.710437    17A     -1.655844    18A     -1.653140  
      19A     -1.619239    20A     -1.485379    21A     -1.175243  
      22A     -1.045323    23A     -0.994157    24A     -0.913059  
      25A     -0.872601    26A     -0.849674    27A     -0.837016  
      28A     -0.826664    29A     -0.807374    30A     -0.752542  
      31A     -0.739742    32A     -0.721191    33A     -0.701183  
      34A     -0.695971    35A     -0.677405    36A     -0.664153  
      37A     -0.657966    38A     -0.652340    39A     -0.634116  
      40A     -0.628219    41A     -0.563893    42A     -0.557596  
      43A     -0.521307    44A     -0.470726    45A     -0.461815  

    Virtual:                                                              

      46A      0.175444    47A      0.236230    48A      0.263997  
      49A      0.282520    50A      0.352063    51A      0.381412  
      52A      0.400084    53A      0.425327    54A      0.444761  
      55A      0.478175    56A      0.499971    57A      0.556702  
      58A      0.626825    59A      0.635431    60A      0.653831  
      61A      0.688981    62A      0.707793    63A      0.725887  
      64A      0.751171    65A      0.764272    66A      0.765846  
      67A      0.791692    68A      0.870275    69A      0.936924  
      70A      0.979971    71A      1.021618    72A      1.065792  
      73A      1.075235    74A      1.129211    75A      1.146088  
      76A      1.171762    77A      1.192028    78A      1.259819  
      79A      1.270544    80A      1.306942    81A      1.324266  
      82A      1.357244    83A      1.398365    84A      1.404328  
      85A      1.440415    86A      1.448394    87A      1.468498  
      88A      1.522114    89A      1.553227    90A      1.576538  
      91A      1.601687    92A      1.615373    93A      1.638801  
      94A      1.651208    95A      1.666861    96A      1.683982  
      97A      1.702212    98A      1.741271    99A      1.747544  
     100A      1.788518   101A      1.843336   102A      1.859866  
     103A      1.928153   104A      1.957558   105A      1.978752  
     106A      1.998844   107A      2.036897   108A      2.075076  
     109A      2.082699   110A      2.090031   111A      2.112816  
     112A      2.122598   113A      2.143023   114A      2.214578  
     115A      2.249340   116A      2.261396   117A      2.268827  
     118A      2.329282   119A      2.345027   120A      2.361116  
     121A      2.382840   122A      2.398363   123A      2.414855  
     124A      2.469908   125A      2.494628   126A      2.505395  
     127A      2.515780   128A      2.564741   129A      2.609655  
     130A      2.687322   131A      2.711021   132A      2.794779  
     133A      2.838414   134A      2.856463   135A      2.933009  
     136A      3.037781   137A      3.098878   138A      3.105722  
     139A      3.165181   140A      3.212741   141A      3.262990  
     142A      3.314380   143A      3.347500   144A      3.414456  
     145A      3.439675   146A      3.457133   147A      3.538381  
     148A      3.599975   149A      4.382089   150A      4.585225  
     151A      4.685196   152A      4.735575   153A      4.872009  
     154A      5.042504   155A      5.112852   156A      5.791545  
     157A      5.910089   158A      6.534147  

    Final Occupation by Irrep:
              A 
    DOCC [    45 ]

  Energy converged.

  @DF-RHF Final Energy: -1146.23755565656643

   => Energetics <=

    Nuclear Repulsion Energy =            793.0759830443732881
    One-Electron Energy =               -3169.4552590299476833
    Two-Electron Energy =                1230.1417203290093312
    DFT Exchange-Correlation Energy =       0.0000000000000000
    Empirical Dispersion Energy =           0.0000000000000000
    PCM Polarization Energy =               0.0000000000000000
    EFP Energy =                            0.0000000000000000
    Total Energy =                      -1146.2375556565648367

    Alert: EFP and PCM quantities not currently incorporated into SCF psivars.

Properties will be evaluated at   0.000000,   0.000000,   0.000000 Bohr
  ==> Properties <==


Properties computed using the SCF density matrix

  Nuclear Dipole Moment: (a.u.)
     X:     1.3158      Y:    -2.0466      Z:     4.1758

  Electronic Dipole Moment: (a.u.)
     X:    -1.1516      Y:     2.0404      Z:    -3.2873

  Dipole Moment: (a.u.)
     X:     0.1642      Y:    -0.0063      Z:     0.8885     Total:     0.9036

  Dipole Moment: (Debye)
     X:     0.4174      Y:    -0.0159      Z:     2.2584     Total:     2.2967


  Saving occupied orbitals to File 180.

*** tstop() called on cx1-3-4-4.cx1.hpc.ic.ac.uk at Tue Jul  5 17:20:28 2016
Module time:
	user time   =      17.78 seconds =       0.30 minutes
	system time =       0.19 seconds =       0.00 minutes
	total time  =         19 seconds =       0.32 minutes
Total time:
	user time   =      17.78 seconds =       0.30 minutes
	system time =       0.19 seconds =       0.00 minutes
	total time  =         19 seconds =       0.32 minutes


Properties will be evaluated at   0.000000,   0.000000,   0.000000 Bohr

Properties computed using the  density matrix

  Nuclear Dipole Moment: (a.u.)
     X:     1.3158      Y:    -2.0466      Z:     4.1758

  Electronic Dipole Moment: (a.u.)
     X:    -1.1516      Y:     2.0404      Z:    -3.2873

  Dipole Moment: (a.u.)
     X:     0.1642      Y:    -0.0063      Z:     0.8885     Total:     0.9036

  Dipole Moment: (Debye)
     X:     0.4174      Y:    -0.0159      Z:     2.2584     Total:     2.2967

  Quadrupole Moment: (Debye Ang)
    XX:   -56.8589     YY:   -62.7565     ZZ:   -58.6231
    XY:     2.3142     XZ:    -1.2283     YZ:    -0.8664

  Traceless Quadrupole Moment: (Debye Ang)
    XX:     2.5539     YY:    -3.3437     ZZ:     0.7898
    XY:     2.3142     XZ:    -1.2283     YZ:    -0.8664

  Mulliken Charges: (a.u.)
   Center  Symbol    Alpha    Beta     Spin     Total
       1     H     0.40112  0.40112  0.00000  0.19775
       2     C     2.55820  2.55820  0.00000  0.88361
       3     O     4.30446  4.30446  0.00000 -0.60892
       4     F     4.68481  4.68481  0.00000 -0.36963
       5     F     4.68355  4.68355  0.00000 -0.36711
       6     C     3.03883  3.03883  0.00000 -0.07766
       7     C     2.44711  2.44711  0.00000  1.10577
       8    CL     8.49782  8.49782  0.00000  0.00435
       9     H     0.36193  0.36193  0.00000  0.27615
      10     F     4.67009  4.67009  0.00000 -0.34018
      11     F     4.67802  4.67802  0.00000 -0.35604
      12     F     4.67405  4.67405  0.00000 -0.34810

   Total alpha = 45.00000, Total beta = 45.00000, Total charge =  0.00000


*** PSI4 exiting successfully. Buy a developer a beer!
