    -----------------------------------------------------------------------
          Psi4: An Open-Source Ab Initio Electronic Structure Package
                              Psi4 (no tag) Driver

                          Git: Rev {detached?}  

    J. M. Turney, A. C. Simmonett, R. M. Parrish, E. G. Hohenstein,
    F. A. Evangelista, J. T. Fermann, B. J. Mintz, L. A. Burns, J. J. Wilke,
    M. L. Abrams, N. J. Russ, M. L. Leininger, C. L. Janssen, E. T. Seidl,
    W. D. Allen, H. F. Schaefer, R. A. King, E. F. Valeev, C. D. Sherrill,
    and T. D. Crawford, WIREs Comput. Mol. Sci. 2, 556-565 (2012)
    (doi: 10.1002/wcms.93)

                         Additional Contributions by
    A. E. DePrince, M. Saitow, U. Bozkaya, A. Yu. Sokolov
    -----------------------------------------------------------------------


    Psi4 started on: Tue Jul  5 17:00:31 2016

    Process ID:  16127
    PSI4DATADIR: /export131/home/mjharvey/miniconda3/share
    Memory level set to 256.000 MB

  ==> Input File <==

--------------------------------------------------------------------------
set {
	reference rhf
	basis 6-31G*
}


set_num_threads( 1 )
memory 2 gb

molecule MOL {
0 1

H	 -0.000158	 1.970498	 0.756846
O	 -0.000074	 1.880206	 -0.189275
C	 -0.000015	 0.544847	 -0.545111
C	 -1.146713	 -0.178430	 0.153418
C	 1.372058	 -0.064025	 -0.275501
H	 -0.178470	 0.486751	 -1.608540
F	 -2.176243	 -0.265538	 -0.661458
F	 -0.815867	 -1.397377	 0.523645
F	 -1.537636	 0.487550	 1.228242
F	 2.283717	 0.570380	 -0.981153
F	 1.423530	 -1.339565	 -0.596012
F	 1.696156	 0.053849	 1.002248

	symmetry c1
}
set optking {
	frozen_dihedral = ("
		6 3 2 1
	")
}

ee = energy('scf')
oeprop('DIPOLE', 'QUADRUPOLE', 'MULLIKEN_CHARGES')
f=open( 'psi4out.xyz', 'w' )
f.write( "12  " )
f.write( str(ee) + "\n" )
f.write( MOL.save_string_xyz() )
f.close()
--------------------------------------------------------------------------

  Memory set to   2.000 GiB by Python script.

*** tstart() called on cx1-3-4-4.cx1.hpc.ic.ac.uk
*** at Tue Jul  5 17:00:31 2016


         ---------------------------------------------------------
                                   SCF
            by Justin Turney, Rob Parrish, and Andy Simmonett
                              RHF Reference
                        1 Threads,   2000 MiB Core
         ---------------------------------------------------------

  ==> Geometry <==

    Molecular point group: c1
    Full point group: C1

    Geometry (in Angstrom), charge = 0, multiplicity = 1:

       Center              X                  Y                   Z               Mass       
    ------------   -----------------  -----------------  -----------------  -----------------
           H         -0.113971848667     1.968958630949     0.769335326576     1.007825032070
           O         -0.113887848667     1.878666630949    -0.176785673424    15.994914619560
           C         -0.113828848667     0.543307630949    -0.532621673424    12.000000000000
           C         -1.260526848667    -0.179969369051     0.165907326576    12.000000000000
           C          1.258244151333    -0.065564369051    -0.263011673424    12.000000000000
           H         -0.292283848667     0.485211630949    -1.596050673424     1.007825032070
           F         -2.290056848667    -0.267077369051    -0.648968673424    18.998403224000
           F         -0.929680848667    -1.398916369051     0.536134326576    18.998403224000
           F         -1.651449848667     0.486010630949     1.240731326576    18.998403224000
           F          2.169903151333     0.568840630949    -0.968663673424    18.998403224000
           F          1.309716151333    -1.341104369051    -0.583522673424    18.998403224000
           F          1.582342151333     0.052309630949     1.014737326576    18.998403224000

  Running in c1 symmetry.

  Rotational constants: A =      0.07205  B =      0.03577  C =      0.03167 [cm^-1]
  Rotational constants: A =   2159.90270  B =   1072.45965  C =    949.37300 [MHz]
  Nuclear repulsion =  671.014396515332805

  Charge       = 0
  Multiplicity = 1
  Electrons    = 82
  Nalpha       = 41
  Nbeta        = 41

  ==> Algorithm <==

  SCF Algorithm Type is DF.
  DIIS enabled.
  MOM disabled.
  Fractional occupation disabled.
  Guess Type is CORE.
  Energy threshold   = 1.00e-06
  Density threshold  = 1.00e-06
  Integral threshold = 0.00e+00

  ==> Primary Basis <==

  Basis Set: 6-31G*
    Number of shells: 64
    Number of basis function: 154
    Number of Cartesian functions: 154
    Spherical Harmonics?: false
    Max angular momentum: 2

  ==> Pre-Iterations <==

   -------------------------------------------------------
    Irrep   Nso     Nmo     Nalpha   Nbeta   Ndocc  Nsocc
   -------------------------------------------------------
     A        154     154       0       0       0       0
   -------------------------------------------------------
    Total     154     154      41      41      41       0
   -------------------------------------------------------

 OEINTS: Overlap, kinetic, potential, dipole, and quadrupole integrals
         stored in file 35.

  ==> Integral Setup <==

  ==> DFJK: Density-Fitted J/K Matrices <==

    J tasked:                  Yes
    K tasked:                  Yes
    wK tasked:                  No
    OpenMP threads:              1
    Integrals threads:           1
    Memory (MB):              1430
    Algorithm:                Core
    Integral Cache:           NONE
    Schwarz Cutoff:          1E-12
    Fitting Condition:       1E-12

   => Auxiliary Basis Set <=

  Basis Set: 
    Number of shells: 258
    Number of basis function: 860
    Number of Cartesian functions: 860
    Spherical Harmonics?: false
    Max angular momentum: 3

  Minimum eigenvalue in the overlap matrix is 1.2776307512E-03.
  Using Symmetric Orthogonalization.
  SCF Guess: Core (One-Electron) Hamiltonian.

  ==> Iterations <==

                           Total Energy        Delta E     RMS |[F,P]|

   @DF-RHF iter   1:  -701.29647449610218   -7.01296e+02   6.75521e-02 
   @DF-RHF iter   2:  -566.46738381712169    1.34829e+02   7.93028e-02 DIIS
   @DF-RHF iter   3:  -706.65358178046210   -1.40186e+02   6.33055e-02 DIIS
   @DF-RHF iter   4:  -766.02089456035822   -5.93673e+01   2.92712e-02 DIIS
   @DF-RHF iter   5:  -755.95965026334022    1.00612e+01   4.08012e-02 DIIS
   @DF-RHF iter   6:  -784.63893218562077   -2.86793e+01   1.35866e-02 DIIS
   @DF-RHF iter   7:  -786.15648384104281   -1.51755e+00   3.34171e-03 DIIS
   @DF-RHF iter   8:  -786.23664856111498   -8.01647e-02   1.87263e-03 DIIS
   @DF-RHF iter   9:  -786.26892010121844   -3.22715e-02   5.84521e-04 DIIS
   @DF-RHF iter  10:  -786.27242329551711   -3.50319e-03   1.73037e-04 DIIS
   @DF-RHF iter  11:  -786.27280512031086   -3.81825e-04   7.77357e-05 DIIS
   @DF-RHF iter  12:  -786.27288230484248   -7.71845e-05   1.21021e-05 DIIS
   @DF-RHF iter  13:  -786.27288485463680   -2.54979e-06   4.57592e-06 DIIS
   @DF-RHF iter  14:  -786.27288521589560   -3.61259e-07   1.24277e-06 DIIS
   @DF-RHF iter  15:  -786.27288524560811   -2.97125e-08   3.75899e-07 DIIS

  ==> Post-Iterations <==

    Orbital Energies (a.u.)
    -----------------------

    Doubly Occupied:                                                      

       1A    -26.367126     2A    -26.363607     3A    -26.361239  
       4A    -26.360375     5A    -26.358235     6A    -26.355546  
       7A    -20.613812     8A    -11.528862     9A    -11.522537  
      10A    -11.347630    11A     -1.766745    12A     -1.757578  
      13A     -1.664081    14A     -1.660847    15A     -1.656136  
      16A     -1.653098    17A     -1.433098    18A     -1.101584  
      19A     -0.997566    20A     -0.937562    21A     -0.867205  
      22A     -0.861039    23A     -0.853333    24A     -0.844980  
      25A     -0.833960    26A     -0.814698    27A     -0.738830  
      28A     -0.731865    29A     -0.723500    30A     -0.722378  
      31A     -0.688851    32A     -0.688417    33A     -0.681509  
      34A     -0.676221    35A     -0.667874    36A     -0.663259  
      37A     -0.655888    38A     -0.649248    39A     -0.619190  
      40A     -0.551274    41A     -0.503845  

    Virtual:                                                              

      42A      0.216464    43A      0.240155    44A      0.290954  
      45A      0.345864    46A      0.358802    47A      0.397510  
      48A      0.453248    49A      0.461610    50A      0.489599  
      51A      0.532316    52A      0.550570    53A      0.667039  
      54A      0.673788    55A      0.706697    56A      0.737080  
      57A      0.752996    58A      0.778237    59A      0.798249  
      60A      0.838813    61A      0.907157    62A      0.962289  
      63A      1.053889    64A      1.078670    65A      1.110475  
      66A      1.169185    67A      1.228579    68A      1.262237  
      69A      1.282498    70A      1.305045    71A      1.345951  
      72A      1.363369    73A      1.372548    74A      1.392756  
      75A      1.428282    76A      1.467484    77A      1.526468  
      78A      1.569135    79A      1.583403    80A      1.602528  
      81A      1.611520    82A      1.621468    83A      1.624220  
      84A      1.645839    85A      1.648279    86A      1.653772  
      87A      1.658596    88A      1.662356    89A      1.696593  
      90A      1.730297    91A      1.742526    92A      1.778943  
      93A      1.882613    94A      1.901683    95A      1.922672  
      96A      1.939744    97A      1.985734    98A      1.999181  
      99A      2.009834   100A      2.083023   101A      2.091444  
     102A      2.109133   103A      2.112061   104A      2.137888  
     105A      2.140907   106A      2.156473   107A      2.185240  
     108A      2.195504   109A      2.286234   110A      2.306965  
     111A      2.310045   112A      2.328951   113A      2.344864  
     114A      2.352056   115A      2.388313   116A      2.389319  
     117A      2.401430   118A      2.407485   119A      2.450023  
     120A      2.476556   121A      2.511095   122A      2.544175  
     123A      2.569070   124A      2.620177   125A      2.655961  
     126A      2.724815   127A      2.760746   128A      2.786683  
     129A      2.846995   130A      2.911143   131A      2.964236  
     132A      3.066910   133A      3.146532   134A      3.158572  
     135A      3.210128   136A      3.214701   137A      3.252922  
     138A      3.325510   139A      3.406618   140A      3.413600  
     141A      3.424825   142A      3.437370   143A      3.458414  
     144A      3.467816   145A      4.159176   146A      4.583428  
     147A      4.725362   148A      4.922491   149A      5.077415  
     150A      5.118006   151A      5.237389   152A      5.459546  
     153A      5.759108   154A      6.263617  

    Final Occupation by Irrep:
              A 
    DOCC [    41 ]

  Energy converged.

  @DF-RHF Final Energy:  -786.27288524560811

   => Energetics <=

    Nuclear Repulsion Energy =            671.0143965153328054
    One-Electron Energy =               -2428.8853644138280288
    Two-Electron Energy =                 971.5980826528854095
    DFT Exchange-Correlation Energy =       0.0000000000000000
    Empirical Dispersion Energy =           0.0000000000000000
    PCM Polarization Energy =               0.0000000000000000
    EFP Energy =                            0.0000000000000000
    Total Energy =                       -786.2728852456097002

    Alert: EFP and PCM quantities not currently incorporated into SCF psivars.

Properties will be evaluated at   0.000000,   0.000000,   0.000000 Bohr
  ==> Properties <==


Properties computed using the SCF density matrix

  Nuclear Dipole Moment: (a.u.)
     X:    -0.5614      Y:     4.1021      Z:    -1.3329

  Electronic Dipole Moment: (a.u.)
     X:     0.4261      Y:    -3.9553      Z:     1.3522

  Dipole Moment: (a.u.)
     X:    -0.1353      Y:     0.1467      Z:     0.0193     Total:     0.2005

  Dipole Moment: (Debye)
     X:    -0.3439      Y:     0.3729      Z:     0.0491     Total:     0.5096


  Saving occupied orbitals to File 180.

*** tstop() called on cx1-3-4-4.cx1.hpc.ic.ac.uk at Tue Jul  5 17:00:47 2016
Module time:
	user time   =      15.42 seconds =       0.26 minutes
	system time =       0.19 seconds =       0.00 minutes
	total time  =         16 seconds =       0.27 minutes
Total time:
	user time   =      15.42 seconds =       0.26 minutes
	system time =       0.19 seconds =       0.00 minutes
	total time  =         16 seconds =       0.27 minutes


Properties will be evaluated at   0.000000,   0.000000,   0.000000 Bohr

Properties computed using the  density matrix

  Nuclear Dipole Moment: (a.u.)
     X:    -0.5614      Y:     4.1021      Z:    -1.3329

  Electronic Dipole Moment: (a.u.)
     X:     0.4261      Y:    -3.9553      Z:     1.3522

  Dipole Moment: (a.u.)
     X:    -0.1353      Y:     0.1467      Z:     0.0193     Total:     0.2005

  Dipole Moment: (Debye)
     X:    -0.3439      Y:     0.3729      Z:     0.0491     Total:     0.5096

  Quadrupole Moment: (Debye Ang)
    XX:   -56.5993     YY:   -55.1061     ZZ:   -50.0816
    XY:    -0.1382     XZ:     0.6723     YZ:     2.9525

  Traceless Quadrupole Moment: (Debye Ang)
    XX:    -2.6703     YY:    -1.1771     ZZ:     3.8474
    XY:    -0.1382     XZ:     0.6723     YZ:     2.9525

  Mulliken Charges: (a.u.)
   Center  Symbol    Alpha    Beta     Spin     Total
       1     H     0.26458  0.26458  0.00000  0.47085
       2     O     4.36258  4.36258  0.00000 -0.72515
       3     C     3.07035  3.07035  0.00000 -0.14071
       4     C     2.43043  2.43043  0.00000  1.13913
       5     C     2.43815  2.43815  0.00000  1.12370
       6     H     0.37142  0.37142  0.00000  0.25716
       7     F     4.67647  4.67647  0.00000 -0.35294
       8     F     4.67288  4.67288  0.00000 -0.34576
       9     F     4.68056  4.68056  0.00000 -0.36111
      10     F     4.67550  4.67550  0.00000 -0.35101
      11     F     4.67492  4.67492  0.00000 -0.34985
      12     F     4.68215  4.68215  0.00000 -0.36430

   Total alpha = 41.00000, Total beta = 41.00000, Total charge =  0.00000


*** PSI4 exiting successfully. Buy a developer a beer!
