    -----------------------------------------------------------------------
          Psi4: An Open-Source Ab Initio Electronic Structure Package
                              Psi4 (no tag) Driver

                          Git: Rev {detached?}  

    J. M. Turney, A. C. Simmonett, R. M. Parrish, E. G. Hohenstein,
    F. A. Evangelista, J. T. Fermann, B. J. Mintz, L. A. Burns, J. J. Wilke,
    M. L. Abrams, N. J. Russ, M. L. Leininger, C. L. Janssen, E. T. Seidl,
    W. D. Allen, H. F. Schaefer, R. A. King, E. F. Valeev, C. D. Sherrill,
    and T. D. Crawford, WIREs Comput. Mol. Sci. 2, 556-565 (2012)
    (doi: 10.1002/wcms.93)

                         Additional Contributions by
    A. E. DePrince, M. Saitow, U. Bozkaya, A. Yu. Sokolov
    -----------------------------------------------------------------------


    Psi4 started on: Tue Jul  5 17:10:02 2016

    Process ID:  18345
    PSI4DATADIR: /export131/home/mjharvey/miniconda3/share
    Memory level set to 256.000 MB

  ==> Input File <==

--------------------------------------------------------------------------
set {
	reference rhf
	basis 6-31G*
}


set_num_threads( 1 )
memory 2 gb

molecule MOL {
0 1

H	 -2.646374	 -0.642757	 1.268656
C	 -2.083525	 -0.384536	 0.393091
O	 -0.807605	 -0.127164	 0.768327
F	 -2.118945	 -1.383102	 -0.486752
F	 -2.621877	 0.670592	 -0.209486
C	 0.084052	 0.273579	 -0.209957
C	 -0.619116	 0.101262	 -1.550114
Cl	 1.563504	 -0.698582	 -0.152165
H	 0.367893	 1.306364	 -0.107173
F	 -0.794986	 -1.175662	 -1.815958
F	 0.140154	 0.615583	 -2.496909
F	 -1.783285	 0.702803	 -1.578949

	symmetry c1
}
set optking {
	frozen_dihedral = ("
		10 7 6 9,
		6 3 2 4
	")
}

ee = energy('scf')
oeprop('DIPOLE', 'QUADRUPOLE', 'MULLIKEN_CHARGES')
f=open( 'psi4out.xyz', 'w' )
f.write( "12  " )
f.write( str(ee) + "\n" )
f.write( MOL.save_string_xyz() )
f.close()
--------------------------------------------------------------------------

  Memory set to   2.000 GiB by Python script.

*** tstart() called on cx1-3-4-4.cx1.hpc.ic.ac.uk
*** at Tue Jul  5 17:10:02 2016


         ---------------------------------------------------------
                                   SCF
            by Justin Turney, Rob Parrish, and Andy Simmonett
                              RHF Reference
                        1 Threads,   2000 MiB Core
         ---------------------------------------------------------

  ==> Geometry <==

    Molecular point group: c1
    Full point group: C1

    Geometry (in Angstrom), charge = 0, multiplicity = 1:

       Center              X                  Y                   Z               Mass       
    ------------   -----------------  -----------------  -----------------  -----------------
           H         -1.948703793408    -0.443078429777     1.993917541355     1.007825032070
           C         -1.385854793408    -0.184857429777     1.118352541355    12.000000000000
           O         -0.109934793408     0.072514570223     1.493588541355    15.994914619560
           F         -1.421274793408    -1.183423429777     0.238509541355    18.998403224000
           F         -1.924206793408     0.870270570223     0.515775541355    18.998403224000
           C          0.781722206592     0.473257570223     0.515304541355    12.000000000000
           C          0.078554206592     0.300940570223    -0.824852458645    12.000000000000
          CL          2.261174206592    -0.498903429777     0.573096541355    34.968852682000
           H          1.065563206592     1.506042570223     0.618088541355     1.007825032070
           F         -0.097315793408    -0.975983429777    -1.090696458645    18.998403224000
           F          0.837824206592     0.815261570223    -1.771647458645    18.998403224000
           F         -1.085614793408     0.902481570223    -0.853687458645    18.998403224000

  Running in c1 symmetry.

  Rotational constants: A =      0.06054  B =      0.03731  C =      0.03046 [cm^-1]
  Rotational constants: A =   1814.94347  B =   1118.60453  C =    913.24358 [MHz]
  Nuclear repulsion =  800.018455730169308

  Charge       = 0
  Multiplicity = 1
  Electrons    = 90
  Nalpha       = 45
  Nbeta        = 45

  ==> Algorithm <==

  SCF Algorithm Type is DF.
  DIIS enabled.
  MOM disabled.
  Fractional occupation disabled.
  Guess Type is CORE.
  Energy threshold   = 1.00e-06
  Density threshold  = 1.00e-06
  Integral threshold = 0.00e+00

  ==> Primary Basis <==

  Basis Set: 6-31G*
    Number of shells: 66
    Number of basis function: 158
    Number of Cartesian functions: 158
    Spherical Harmonics?: false
    Max angular momentum: 2

  ==> Pre-Iterations <==

   -------------------------------------------------------
    Irrep   Nso     Nmo     Nalpha   Nbeta   Ndocc  Nsocc
   -------------------------------------------------------
     A        158     158       0       0       0       0
   -------------------------------------------------------
    Total     158     158      45      45      45       0
   -------------------------------------------------------

 OEINTS: Overlap, kinetic, potential, dipole, and quadrupole integrals
         stored in file 35.

  ==> Integral Setup <==

  ==> DFJK: Density-Fitted J/K Matrices <==

    J tasked:                  Yes
    K tasked:                  Yes
    wK tasked:                  No
    OpenMP threads:              1
    Integrals threads:           1
    Memory (MB):              1430
    Algorithm:                Core
    Integral Cache:           NONE
    Schwarz Cutoff:          1E-12
    Fitting Condition:       1E-12

   => Auxiliary Basis Set <=

  Basis Set: 
    Number of shells: 270
    Number of basis function: 909
    Number of Cartesian functions: 909
    Spherical Harmonics?: false
    Max angular momentum: 3

  Minimum eigenvalue in the overlap matrix is 8.9975905073E-04.
  Using Symmetric Orthogonalization.
  SCF Guess: Core (One-Electron) Hamiltonian.

  ==> Iterations <==

                           Total Energy        Delta E     RMS |[F,P]|

   @DF-RHF iter   1: -1057.60545866678126   -1.05761e+03   7.21781e-02 
   @DF-RHF iter   2:  -872.24484928726019    1.85361e+02   7.89744e-02 DIIS
   @DF-RHF iter   3: -1035.49749940473953   -1.63253e+02   6.93880e-02 DIIS
   @DF-RHF iter   4: -1121.50933114549207   -8.60118e+01   3.41425e-02 DIIS
   @DF-RHF iter   5: -1099.69792576167924    2.18114e+01   4.70967e-02 DIIS
   @DF-RHF iter   6: -1145.10127319911749   -4.54033e+01   1.04334e-02 DIIS
   @DF-RHF iter   7: -1145.97167117255958   -8.70398e-01   4.00417e-03 DIIS
   @DF-RHF iter   8: -1146.08730337645079   -1.15632e-01   1.16627e-03 DIIS
   @DF-RHF iter   9: -1146.10396724108705   -1.66639e-02   4.18846e-04 DIIS
   @DF-RHF iter  10: -1146.10640478597793   -2.43754e-03   1.16794e-04 DIIS
   @DF-RHF iter  11: -1146.10663384930899   -2.29063e-04   3.30755e-05 DIIS
   @DF-RHF iter  12: -1146.10665715014102   -2.33008e-05   1.36112e-05 DIIS
   @DF-RHF iter  13: -1146.10666058607580   -3.43593e-06   3.62576e-06 DIIS
   @DF-RHF iter  14: -1146.10666095208330   -3.66007e-07   1.05898e-06 DIIS
   @DF-RHF iter  15: -1146.10666098354227   -3.14590e-08   2.73251e-07 DIIS

  ==> Post-Iterations <==

    Orbital Energies (a.u.)
    -----------------------

    Doubly Occupied:                                                      

       1A   -104.846964     2A    -26.348736     3A    -26.330995  
       4A    -26.330966     5A    -26.324765     6A    -26.305230  
       7A    -20.644642     8A    -11.517564     9A    -11.480343  
      10A    -11.400347    11A    -10.581458    12A     -8.050830  
      13A     -8.047256    14A     -8.047144    15A     -1.780314  
      16A     -1.708468    17A     -1.676828    18A     -1.640049  
      19A     -1.603925    20A     -1.485988    21A     -1.178337  
      22A     -1.040702    23A     -1.013625    24A     -0.909705  
      25A     -0.880654    26A     -0.873450    27A     -0.859462  
      28A     -0.802171    29A     -0.787767    30A     -0.765587  
      31A     -0.750531    32A     -0.742147    33A     -0.695464  
      34A     -0.684841    35A     -0.670997    36A     -0.667535  
      37A     -0.658038    38A     -0.642992    39A     -0.629749  
      40A     -0.585224    41A     -0.550068    42A     -0.526103  
      43A     -0.514175    44A     -0.479720    45A     -0.468285  

    Virtual:                                                              

      46A      0.167857    47A      0.243166    48A      0.262291  
      49A      0.276358    50A      0.356106    51A      0.380203  
      52A      0.397183    53A      0.421766    54A      0.457829  
      55A      0.469205    56A      0.513213    57A      0.550569  
      58A      0.626052    59A      0.627278    60A      0.637993  
      61A      0.681875    62A      0.712919    63A      0.726949  
      64A      0.752068    65A      0.760802    66A      0.771352  
      67A      0.831114    68A      0.863718    69A      0.925345  
      70A      0.977328    71A      1.057852    72A      1.067014  
      73A      1.101029    74A      1.135448    75A      1.149008  
      76A      1.176701    77A      1.222791    78A      1.254454  
      79A      1.279139    80A      1.287166    81A      1.326598  
      82A      1.347891    83A      1.358937    84A      1.402350  
      85A      1.428281    86A      1.459822    87A      1.503344  
      88A      1.520723    89A      1.537555    90A      1.545049  
      91A      1.591627    92A      1.615354    93A      1.631368  
      94A      1.648770    95A      1.668699    96A      1.681371  
      97A      1.738575    98A      1.767660    99A      1.786675  
     100A      1.832959   101A      1.884983   102A      1.898490  
     103A      1.942330   104A      1.956203   105A      1.996175  
     106A      2.010845   107A      2.057396   108A      2.067375  
     109A      2.099774   110A      2.102987   111A      2.112790  
     112A      2.182589   113A      2.219021   114A      2.245759  
     115A      2.275932   116A      2.290775   117A      2.319364  
     118A      2.324846   119A      2.338082   120A      2.373269  
     121A      2.388750   122A      2.435814   123A      2.459754  
     124A      2.514077   125A      2.521525   126A      2.546992  
     127A      2.627594   128A      2.671778   129A      2.682801  
     130A      2.739386   131A      2.763792   132A      2.823784  
     133A      2.879462   134A      2.929068   135A      3.007415  
     136A      3.039509   137A      3.090004   138A      3.188855  
     139A      3.225254   140A      3.271987   141A      3.292526  
     142A      3.368763   143A      3.398572   144A      3.466441  
     145A      3.471724   146A      3.538683   147A      3.618958  
     148A      3.848694   149A      4.489629   150A      4.571887  
     151A      4.710849   152A      4.744182   153A      4.795301  
     154A      4.973456   155A      5.395595   156A      5.749486  
     157A      6.067167   158A      7.872978  

    Final Occupation by Irrep:
              A 
    DOCC [    45 ]

  Energy converged.

  @DF-RHF Final Energy: -1146.10666098354227

   => Energetics <=

    Nuclear Repulsion Energy =            800.0184557301693076
    One-Electron Energy =               -3183.1898797525032023
    Two-Electron Energy =                1237.0647630387925346
    DFT Exchange-Correlation Energy =       0.0000000000000000
    Empirical Dispersion Energy =           0.0000000000000000
    PCM Polarization Energy =               0.0000000000000000
    EFP Energy =                            0.0000000000000000
    Total Energy =                      -1146.1066609835411327

    Alert: EFP and PCM quantities not currently incorporated into SCF psivars.

Properties will be evaluated at   0.000000,   0.000000,   0.000000 Bohr
  ==> Properties <==


Properties computed using the SCF density matrix

  Nuclear Dipole Moment: (a.u.)
     X:     0.5831      Y:     1.0492      Z:     4.7252

  Electronic Dipole Moment: (a.u.)
     X:    -0.7762      Y:    -0.6078      Z:    -4.0272

  Dipole Moment: (a.u.)
     X:    -0.1931      Y:     0.4414      Z:     0.6980     Total:     0.8482

  Dipole Moment: (Debye)
     X:    -0.4908      Y:     1.1220      Z:     1.7742     Total:     2.1558


  Saving occupied orbitals to File 180.

*** tstop() called on cx1-3-4-4.cx1.hpc.ic.ac.uk at Tue Jul  5 17:10:20 2016
Module time:
	user time   =      17.86 seconds =       0.30 minutes
	system time =       0.21 seconds =       0.00 minutes
	total time  =         18 seconds =       0.30 minutes
Total time:
	user time   =      17.86 seconds =       0.30 minutes
	system time =       0.21 seconds =       0.00 minutes
	total time  =         18 seconds =       0.30 minutes


Properties will be evaluated at   0.000000,   0.000000,   0.000000 Bohr

Properties computed using the  density matrix

  Nuclear Dipole Moment: (a.u.)
     X:     0.5831      Y:     1.0492      Z:     4.7252

  Electronic Dipole Moment: (a.u.)
     X:    -0.7762      Y:    -0.6078      Z:    -4.0272

  Dipole Moment: (a.u.)
     X:    -0.1931      Y:     0.4414      Z:     0.6980     Total:     0.8482

  Dipole Moment: (Debye)
     X:    -0.4908      Y:     1.1220      Z:     1.7742     Total:     2.1558

  Quadrupole Moment: (Debye Ang)
    XX:   -59.6473     YY:   -59.4964     ZZ:   -60.0634
    XY:     2.4175     XZ:    -2.8085     YZ:     0.0469

  Traceless Quadrupole Moment: (Debye Ang)
    XX:     0.0884     YY:     0.2393     ZZ:    -0.3277
    XY:     2.4175     XZ:    -2.8085     YZ:     0.0469

  Mulliken Charges: (a.u.)
   Center  Symbol    Alpha    Beta     Spin     Total
       1     H     0.39146  0.39146  0.00000  0.21708
       2     C     2.55944  2.55944  0.00000  0.88112
       3     O     4.31720  4.31720  0.00000 -0.63440
       4     F     4.68916  4.68916  0.00000 -0.37832
       5     F     4.68671  4.68671  0.00000 -0.37343
       6     C     3.00070  3.00070  0.00000 -0.00140
       7     C     2.47937  2.47937  0.00000  1.04126
       8    CL     8.49449  8.49449  0.00000  0.01102
       9     H     0.37115  0.37115  0.00000  0.25771
      10     F     4.66894  4.66894  0.00000 -0.33788
      11     F     4.67830  4.67830  0.00000 -0.35660
      12     F     4.66308  4.66308  0.00000 -0.32616

   Total alpha = 45.00000, Total beta = 45.00000, Total charge = -0.00000


*** PSI4 exiting successfully. Buy a developer a beer!
