    -----------------------------------------------------------------------
          Psi4: An Open-Source Ab Initio Electronic Structure Package
                              Psi4 (no tag) Driver

                          Git: Rev {detached?}  

    J. M. Turney, A. C. Simmonett, R. M. Parrish, E. G. Hohenstein,
    F. A. Evangelista, J. T. Fermann, B. J. Mintz, L. A. Burns, J. J. Wilke,
    M. L. Abrams, N. J. Russ, M. L. Leininger, C. L. Janssen, E. T. Seidl,
    W. D. Allen, H. F. Schaefer, R. A. King, E. F. Valeev, C. D. Sherrill,
    and T. D. Crawford, WIREs Comput. Mol. Sci. 2, 556-565 (2012)
    (doi: 10.1002/wcms.93)

                         Additional Contributions by
    A. E. DePrince, M. Saitow, U. Bozkaya, A. Yu. Sokolov
    -----------------------------------------------------------------------


    Psi4 started on: Tue Jul  5 16:38:57 2016

    Process ID:  32679
    PSI4DATADIR: /export131/home/mjharvey/miniconda3/share
    Memory level set to 256.000 MB

  ==> Input File <==

--------------------------------------------------------------------------
set {
	reference rhf
	basis 6-31G*
}


set_num_threads( 1 )
memory 2 gb

molecule MOL {
0 1

H	 -1.748661	 -2.220942	 -0.005015
C	 -1.343207	 -1.225221	 -0.013879
N	 -0.055091	 -1.100174	 -0.261126
C	 -2.150779	 -0.125890	 0.222726
C	 0.449969	 0.122615	 -0.277109
H	 -3.200618	 -0.238980	 0.422496
N	 -1.660212	 1.097703	 0.209594
C	 -0.371804	 1.219904	 -0.038265
C	 1.928147	 0.267347	 -0.541394
H	 0.029131	 2.217482	 -0.051283
C	 2.384938	 -0.533772	 -1.765144
H	 2.144821	 1.318852	 -0.697125
H	 2.485311	 -0.048664	 0.334893
H	 3.445417	 -0.386100	 -1.942841
H	 1.844477	 -0.218243	 -2.649916
H	 2.212585	 -1.596140	 -1.623795

	symmetry c1
}
ee = energy('scf')
oeprop('DIPOLE', 'QUADRUPOLE', 'MULLIKEN_CHARGES')
f=open( 'psi4out.xyz', 'w' )
f.write( "16  " )
f.write( str(ee) + "\n" )
f.write( MOL.save_string_xyz() )
f.close()
--------------------------------------------------------------------------

  Memory set to   2.000 GiB by Python script.

*** tstart() called on cx1-3-6-2.cx1.hpc.ic.ac.uk
*** at Tue Jul  5 16:38:57 2016


         ---------------------------------------------------------
                                   SCF
            by Justin Turney, Rob Parrish, and Andy Simmonett
                              RHF Reference
                        1 Threads,   2000 MiB Core
         ---------------------------------------------------------

  ==> Geometry <==

    Molecular point group: c1
    Full point group: C1

    Geometry (in Angstrom), charge = 0, multiplicity = 1:

       Center              X                  Y                   Z               Mass       
    ------------   -----------------  -----------------  -----------------  -----------------
           H         -1.693293965669    -2.179147148507     0.327547250150     1.007825032070
           C         -1.287839965669    -1.183426148507     0.318683250150    12.000000000000
           N          0.000276034331    -1.058379148507     0.071436250150    14.003074004780
           C         -2.095411965669    -0.084095148507     0.555288250150    12.000000000000
           C          0.505336034331     0.164409851493     0.055453250150    12.000000000000
           H         -3.145250965669    -0.197185148507     0.755058250150     1.007825032070
           N         -1.604844965669     1.139497851493     0.542156250150    14.003074004780
           C         -0.316436965669     1.261698851493     0.294297250150    12.000000000000
           C          1.983514034331     0.309141851493    -0.208831749850    12.000000000000
           H          0.084498034331     2.259276851493     0.281279250150     1.007825032070
           C          2.440305034331    -0.491977148507    -1.432581749850    12.000000000000
           H          2.200188034331     1.360646851493    -0.364562749850     1.007825032070
           H          2.540678034331    -0.006869148507     0.667455250150     1.007825032070
           H          3.500784034331    -0.344305148507    -1.610278749850     1.007825032070
           H          1.899844034331    -0.176448148507    -2.317353749850     1.007825032070
           H          2.267952034331    -1.554345148507    -1.291232749850     1.007825032070

  Running in c1 symmetry.

  Rotational constants: A =      0.16837  B =      0.05216  C =      0.04206 [cm^-1]
  Rotational constants: A =   5047.51603  B =   1563.57443  C =   1260.98812 [MHz]
  Nuclear repulsion =  350.042048704785032

  Charge       = 0
  Multiplicity = 1
  Electrons    = 58
  Nalpha       = 29
  Nbeta        = 29

  ==> Algorithm <==

  SCF Algorithm Type is DF.
  DIIS enabled.
  MOM disabled.
  Fractional occupation disabled.
  Guess Type is CORE.
  Energy threshold   = 1.00e-06
  Density threshold  = 1.00e-06
  Integral threshold = 0.00e+00

  ==> Primary Basis <==

  Basis Set: 6-31G*
    Number of shells: 64
    Number of basis function: 136
    Number of Cartesian functions: 136
    Spherical Harmonics?: false
    Max angular momentum: 2

  ==> Pre-Iterations <==

   -------------------------------------------------------
    Irrep   Nso     Nmo     Nalpha   Nbeta   Ndocc  Nsocc
   -------------------------------------------------------
     A        136     136       0       0       0       0
   -------------------------------------------------------
    Total     136     136      29      29      29       0
   -------------------------------------------------------

 OEINTS: Overlap, kinetic, potential, dipole, and quadrupole integrals
         stored in file 35.

  ==> Integral Setup <==

  ==> DFJK: Density-Fitted J/K Matrices <==

    J tasked:                  Yes
    K tasked:                  Yes
    wK tasked:                  No
    OpenMP threads:              1
    Integrals threads:           1
    Memory (MB):              1430
    Algorithm:                Core
    Integral Cache:           NONE
    Schwarz Cutoff:          1E-12
    Fitting Condition:       1E-12

   => Auxiliary Basis Set <=

  Basis Set: 
    Number of shells: 264
    Number of basis function: 848
    Number of Cartesian functions: 848
    Spherical Harmonics?: false
    Max angular momentum: 3

  Minimum eigenvalue in the overlap matrix is 1.1597199634E-03.
  Using Symmetric Orthogonalization.
  SCF Guess: Core (One-Electron) Hamiltonian.

  ==> Iterations <==

                           Total Energy        Delta E     RMS |[F,P]|

   @DF-RHF iter   1:  -252.43372660542849   -2.52434e+02   6.94421e-02 
   @DF-RHF iter   2:  -127.45150722906141    1.24982e+02   8.09208e-02 DIIS
   @DF-RHF iter   3:  -231.49859728878909   -1.04047e+02   6.30998e-02 DIIS
   @DF-RHF iter   4:  -280.14224995663966   -4.86437e+01   5.72836e-02 DIIS
   @DF-RHF iter   5:  -339.77369733687470   -5.96314e+01   9.78966e-03 DIIS
   @DF-RHF iter   6:  -340.53493665982779   -7.61239e-01   5.12163e-03 DIIS
   @DF-RHF iter   7:  -340.74713865253995   -2.12202e-01   8.62284e-04 DIIS
   @DF-RHF iter   8:  -340.75537977729408   -8.24112e-03   4.09326e-04 DIIS
   @DF-RHF iter   9:  -340.75734395820717   -1.96418e-03   1.18930e-04 DIIS
   @DF-RHF iter  10:  -340.75767541989529   -3.31462e-04   5.68804e-05 DIIS
   @DF-RHF iter  11:  -340.75778555665175   -1.10137e-04   2.71838e-05 DIIS
   @DF-RHF iter  12:  -340.75781997226494   -3.44156e-05   1.14982e-05 DIIS
   @DF-RHF iter  13:  -340.75782662670139   -6.65444e-06   3.97538e-06 DIIS
   @DF-RHF iter  14:  -340.75782716882799   -5.42127e-07   1.73220e-06 DIIS
   @DF-RHF iter  15:  -340.75782726808171   -9.92537e-08   4.70670e-07 DIIS

  ==> Post-Iterations <==

    Orbital Energies (a.u.)
    -----------------------

    Doubly Occupied:                                                      

       1A    -15.587052     2A    -15.582140     3A    -11.281252  
       4A    -11.276656     5A    -11.272303     6A    -11.272147  
       7A    -11.233138     8A    -11.214385     9A     -1.313567  
      10A     -1.222242    11A     -1.084051    12A     -1.012831  
      13A     -0.907147    14A     -0.890788    15A     -0.826169  
      16A     -0.717310    17A     -0.708336    18A     -0.658869  
      19A     -0.620423    20A     -0.601425    21A     -0.573447  
      22A     -0.559540    23A     -0.520324    24A     -0.505032  
      25A     -0.499625    26A     -0.485808    27A     -0.429016  
      28A     -0.395073    29A     -0.345333  

    Virtual:                                                              

      30A      0.103302    31A      0.134551    32A      0.246505  
      33A      0.271682    34A      0.277055    35A      0.300986  
      36A      0.316769    37A      0.324116    38A      0.327469  
      39A      0.336743    40A      0.363115    41A      0.380506  
      42A      0.412592    43A      0.433651    44A      0.503759  
      45A      0.511694    46A      0.553673    47A      0.630735  
      48A      0.666240    49A      0.718021    50A      0.725625  
      51A      0.744647    52A      0.749348    53A      0.763406  
      54A      0.793176    55A      0.800468    56A      0.827711  
      57A      0.840498    58A      0.861781    59A      0.882848  
      60A      0.921238    61A      0.948039    62A      0.987828  
      63A      1.004175    64A      1.026703    65A      1.055398  
      66A      1.078704    67A      1.082137    68A      1.093153  
      69A      1.107526    70A      1.133339    71A      1.137514  
      72A      1.157800    73A      1.166773    74A      1.190925  
      75A      1.214001    76A      1.233235    77A      1.242266  
      78A      1.258183    79A      1.272195    80A      1.330146  
      81A      1.369413    82A      1.389772    83A      1.481235  
      84A      1.523481    85A      1.558892    86A      1.617861  
      87A      1.644000    88A      1.710361    89A      1.757985  
      90A      1.774644    91A      1.785276    92A      1.795846  
      93A      1.827788    94A      1.948374    95A      1.978652  
      96A      2.057373    97A      2.105220    98A      2.137434  
      99A      2.156233   100A      2.188728   101A      2.240887  
     102A      2.286066   103A      2.301328   104A      2.326954  
     105A      2.423147   106A      2.489447   107A      2.494792  
     108A      2.562268   109A      2.572464   110A      2.601472  
     111A      2.616653   112A      2.638152   113A      2.685746  
     114A      2.701669   115A      2.721210   116A      2.727003  
     117A      2.809004   118A      2.879102   119A      2.923379  
     120A      2.962878   121A      3.023032   122A      3.103458  
     123A      3.139968   124A      3.173123   125A      3.220346  
     126A      3.268399   127A      3.504477   128A      3.842598  
     129A      4.366415   130A      4.501531   131A      4.557604  
     132A      4.617567   133A      4.712325   134A      4.794032  
     135A      4.877609   136A      4.987689  

    Final Occupation by Irrep:
              A 
    DOCC [    29 ]

  Energy converged.

  @DF-RHF Final Energy:  -340.75782726808171

   => Energetics <=

    Nuclear Repulsion Energy =            350.0420487047850315
    One-Electron Energy =               -1154.4088182525160846
    Two-Electron Energy =                 463.6089422796491135
    DFT Exchange-Correlation Energy =       0.0000000000000000
    Empirical Dispersion Energy =           0.0000000000000000
    PCM Polarization Energy =               0.0000000000000000
    EFP Energy =                            0.0000000000000000
    Total Energy =                       -340.7578272680819964

    Alert: EFP and PCM quantities not currently incorporated into SCF psivars.

Properties will be evaluated at   0.000000,   0.000000,   0.000000 Bohr
  ==> Properties <==


Properties computed using the SCF density matrix

  Nuclear Dipole Moment: (a.u.)
     X:     7.1814      Y:    -0.7862      Z:    -3.3318

  Electronic Dipole Moment: (a.u.)
     X:    -6.9960      Y:     0.7046      Z:     3.2915

  Dipole Moment: (a.u.)
     X:     0.1853      Y:    -0.0816      Z:    -0.0403     Total:     0.2064

  Dipole Moment: (Debye)
     X:     0.4710      Y:    -0.2073      Z:    -0.1024     Total:     0.5247


  Saving occupied orbitals to File 180.

*** tstop() called on cx1-3-6-2.cx1.hpc.ic.ac.uk at Tue Jul  5 16:39:11 2016
Module time:
	user time   =      12.90 seconds =       0.21 minutes
	system time =       0.08 seconds =       0.00 minutes
	total time  =         14 seconds =       0.23 minutes
Total time:
	user time   =      12.90 seconds =       0.21 minutes
	system time =       0.08 seconds =       0.00 minutes
	total time  =         14 seconds =       0.23 minutes


Properties will be evaluated at   0.000000,   0.000000,   0.000000 Bohr

Properties computed using the  density matrix

  Nuclear Dipole Moment: (a.u.)
     X:     7.1814      Y:    -0.7862      Z:    -3.3318

  Electronic Dipole Moment: (a.u.)
     X:    -6.9960      Y:     0.7046      Z:     3.2915

  Dipole Moment: (a.u.)
     X:     0.1853      Y:    -0.0816      Z:    -0.0403     Total:     0.2064

  Dipole Moment: (Debye)
     X:     0.4710      Y:    -0.2073      Z:    -0.1024     Total:     0.5247

  Quadrupole Moment: (Debye Ang)
    XX:   -44.6606     YY:   -49.0559     ZZ:   -49.1351
    XY:     6.5574     XZ:    -0.1641     YZ:    -1.4444

  Traceless Quadrupole Moment: (Debye Ang)
    XX:     2.9566     YY:    -1.4387     ZZ:    -1.5179
    XY:     6.5574     XZ:    -0.1641     YZ:    -1.4444

  Mulliken Charges: (a.u.)
   Center  Symbol    Alpha    Beta     Spin     Total
       1     H     0.39389  0.39389  0.00000  0.21222
       2     C     2.98934  2.98934  0.00000  0.02132
       3     N     3.75443  3.75443  0.00000 -0.50886
       4     C     2.99815  2.99815  0.00000  0.00370
       5     C     2.87281  2.87281  0.00000  0.25438
       6     H     0.39423  0.39423  0.00000  0.21154
       7     N     3.72871  3.72871  0.00000 -0.45742
       8     C     3.00137  3.00137  0.00000 -0.00275
       9     C     3.16867  3.16867  0.00000 -0.33735
      10     H     0.39494  0.39494  0.00000  0.21012
      11     C     3.24155  3.24155  0.00000 -0.48309
      12     H     0.41506  0.41506  0.00000  0.16989
      13     H     0.40534  0.40534  0.00000  0.18931
      14     H     0.41860  0.41860  0.00000  0.16281
      15     H     0.41846  0.41846  0.00000  0.16308
      16     H     0.40446  0.40446  0.00000  0.19109

   Total alpha = 29.00000, Total beta = 29.00000, Total charge = -0.00000


*** PSI4 exiting successfully. Buy a developer a beer!
