    -----------------------------------------------------------------------
          Psi4: An Open-Source Ab Initio Electronic Structure Package
                              Psi4 (no tag) Driver

                          Git: Rev {detached?}  

    J. M. Turney, A. C. Simmonett, R. M. Parrish, E. G. Hohenstein,
    F. A. Evangelista, J. T. Fermann, B. J. Mintz, L. A. Burns, J. J. Wilke,
    M. L. Abrams, N. J. Russ, M. L. Leininger, C. L. Janssen, E. T. Seidl,
    W. D. Allen, H. F. Schaefer, R. A. King, E. F. Valeev, C. D. Sherrill,
    and T. D. Crawford, WIREs Comput. Mol. Sci. 2, 556-565 (2012)
    (doi: 10.1002/wcms.93)

                         Additional Contributions by
    A. E. DePrince, M. Saitow, U. Bozkaya, A. Yu. Sokolov
    -----------------------------------------------------------------------


    Psi4 started on: Tue Jul  5 16:45:31 2016

    Process ID:  13555
    PSI4DATADIR: /export131/home/mjharvey/miniconda3/share
    Memory level set to 256.000 MB

  ==> Input File <==

--------------------------------------------------------------------------
set {
	reference rhf
	basis 6-31G*
}


set_num_threads( 1 )
memory 2 gb

molecule MOL {
0 1

H	 -0.000158	 1.970498	 0.756846
O	 -0.000074	 1.880206	 -0.189275
C	 -0.000015	 0.544847	 -0.545111
C	 -1.432006	 0.063231	 -0.753520
C	 0.782827	 -0.265999	 0.482356
H	 0.514179	 0.455318	 -1.490463
F	 -1.999383	 0.764584	 -1.711504
F	 -1.486705	 -1.207557	 -1.091846
F	 -2.148722	 0.228608	 0.346738
F	 2.024484	 0.166613	 0.534037
F	 0.810229	 -1.548921	 0.189545
F	 0.256977	 -0.129256	 1.689153

	symmetry c1
}
set optking {
	frozen_dihedral = ("
		7 4 3 6
	")
}

ee = energy('scf')
oeprop('DIPOLE', 'QUADRUPOLE', 'MULLIKEN_CHARGES')
f=open( 'psi4out.xyz', 'w' )
f.write( "12  " )
f.write( str(ee) + "\n" )
f.write( MOL.save_string_xyz() )
f.close()
--------------------------------------------------------------------------

  Memory set to   2.000 GiB by Python script.

*** tstart() called on cx1-3-4-4.cx1.hpc.ic.ac.uk
*** at Tue Jul  5 16:45:32 2016


         ---------------------------------------------------------
                                   SCF
            by Justin Turney, Rob Parrish, and Andy Simmonett
                              RHF Reference
                        1 Threads,   2000 MiB Core
         ---------------------------------------------------------

  ==> Geometry <==

    Molecular point group: c1
    Full point group: C1

    Geometry (in Angstrom), charge = 0, multiplicity = 1:

       Center              X                  Y                   Z               Mass       
    ------------   -----------------  -----------------  -----------------  -----------------
           H          0.330725107153     1.947679172662     0.842534117024     1.007825032070
           O          0.330809107153     1.857387172662    -0.103586882976    15.994914619560
           C          0.330868107153     0.522028172662    -0.459422882976    12.000000000000
           C         -1.101122892847     0.040412172662    -0.667831882976    12.000000000000
           C          1.113710107153    -0.288817827338     0.568044117024    12.000000000000
           H          0.845062107153     0.432499172662    -1.404774882976     1.007825032070
           F         -1.668499892847     0.741765172662    -1.625815882976    18.998403224000
           F         -1.155821892847    -1.230375827338    -1.006157882976    18.998403224000
           F         -1.817838892847     0.205789172662     0.432426117024    18.998403224000
           F          2.355367107153     0.143794172662     0.619725117024    18.998403224000
           F          1.141112107153    -1.571739827338     0.275233117024    18.998403224000
           F          0.587860107153    -0.152074827338     1.774841117024    18.998403224000

  Running in c1 symmetry.

  Rotational constants: A =      0.07208  B =      0.03580  C =      0.03167 [cm^-1]
  Rotational constants: A =   2160.82968  B =   1073.23245  C =    949.32610 [MHz]
  Nuclear repulsion =  670.482885088347530

  Charge       = 0
  Multiplicity = 1
  Electrons    = 82
  Nalpha       = 41
  Nbeta        = 41

  ==> Algorithm <==

  SCF Algorithm Type is DF.
  DIIS enabled.
  MOM disabled.
  Fractional occupation disabled.
  Guess Type is CORE.
  Energy threshold   = 1.00e-06
  Density threshold  = 1.00e-06
  Integral threshold = 0.00e+00

  ==> Primary Basis <==

  Basis Set: 6-31G*
    Number of shells: 64
    Number of basis function: 154
    Number of Cartesian functions: 154
    Spherical Harmonics?: false
    Max angular momentum: 2

  ==> Pre-Iterations <==

   -------------------------------------------------------
    Irrep   Nso     Nmo     Nalpha   Nbeta   Ndocc  Nsocc
   -------------------------------------------------------
     A        154     154       0       0       0       0
   -------------------------------------------------------
    Total     154     154      41      41      41       0
   -------------------------------------------------------

 OEINTS: Overlap, kinetic, potential, dipole, and quadrupole integrals
         stored in file 35.

  ==> Integral Setup <==

  ==> DFJK: Density-Fitted J/K Matrices <==

    J tasked:                  Yes
    K tasked:                  Yes
    wK tasked:                  No
    OpenMP threads:              1
    Integrals threads:           1
    Memory (MB):              1430
    Algorithm:                Core
    Integral Cache:           NONE
    Schwarz Cutoff:          1E-12
    Fitting Condition:       1E-12

   => Auxiliary Basis Set <=

  Basis Set: 
    Number of shells: 258
    Number of basis function: 860
    Number of Cartesian functions: 860
    Spherical Harmonics?: false
    Max angular momentum: 3

  Minimum eigenvalue in the overlap matrix is 1.6885547373E-03.
  Using Symmetric Orthogonalization.
  SCF Guess: Core (One-Electron) Hamiltonian.

  ==> Iterations <==

                           Total Energy        Delta E     RMS |[F,P]|

   @DF-RHF iter   1:  -698.88614362967405   -6.98886e+02   6.86245e-02 
   @DF-RHF iter   2:  -534.40388755980780    1.64482e+02   8.68408e-02 DIIS
   @DF-RHF iter   3:  -729.94228422527112   -1.95538e+02   5.26793e-02 DIIS
   @DF-RHF iter   4:  -739.12130247308255   -9.17902e+00   4.70349e-02 DIIS
   @DF-RHF iter   5:  -768.25355959268268   -2.91323e+01   3.18772e-02 DIIS
   @DF-RHF iter   6:  -785.19516551011793   -1.69416e+01   1.09813e-02 DIIS
   @DF-RHF iter   7:  -786.17932088627845   -9.84155e-01   3.03976e-03 DIIS
   @DF-RHF iter   8:  -786.25775648280114   -7.84356e-02   1.36542e-03 DIIS
   @DF-RHF iter   9:  -786.27489206204382   -1.71356e-02   2.50388e-04 DIIS
   @DF-RHF iter  10:  -786.27585188090666   -9.59819e-04   9.33966e-05 DIIS
   @DF-RHF iter  11:  -786.27595998406468   -1.08103e-04   3.45205e-05 DIIS
   @DF-RHF iter  12:  -786.27597425799900   -1.42739e-05   8.68091e-06 DIIS
   @DF-RHF iter  13:  -786.27597544608102   -1.18808e-06   2.18640e-06 DIIS
   @DF-RHF iter  14:  -786.27597555077523   -1.04694e-07   6.29623e-07 DIIS

  ==> Post-Iterations <==

    Orbital Energies (a.u.)
    -----------------------

    Doubly Occupied:                                                      

       1A    -26.369896     2A    -26.365592     3A    -26.365429  
       4A    -26.358882     5A    -26.354204     6A    -26.353816  
       7A    -20.616182     8A    -11.531985     9A    -11.521192  
      10A    -11.349108    11A     -1.768633    12A     -1.755774  
      13A     -1.665674    14A     -1.663344    15A     -1.654031  
      16A     -1.650477    17A     -1.435069    18A     -1.102016  
      19A     -0.997918    20A     -0.938203    21A     -0.866796  
      22A     -0.863532    23A     -0.854344    24A     -0.842298  
      25A     -0.831568    26A     -0.811912    27A     -0.745143  
      28A     -0.731746    29A     -0.720676    30A     -0.717146  
      31A     -0.692396    32A     -0.689394    33A     -0.684938  
      34A     -0.672393    35A     -0.668566    36A     -0.666374  
      37A     -0.653860    38A     -0.652743    39A     -0.619546  
      40A     -0.550727    41A     -0.504716  

    Virtual:                                                              

      42A      0.216218    43A      0.243535    44A      0.298170  
      45A      0.343452    46A      0.355856    47A      0.399114  
      48A      0.451328    49A      0.462960    50A      0.464887  
      51A      0.529118    52A      0.538827    53A      0.662616  
      54A      0.673608    55A      0.716434    56A      0.733833  
      57A      0.743668    58A      0.793487    59A      0.796271  
      60A      0.855580    61A      0.906665    62A      0.947060  
      63A      1.051314    64A      1.097296    65A      1.143655  
      66A      1.173997    67A      1.240826    68A      1.247660  
      69A      1.279155    70A      1.321255    71A      1.349595  
      72A      1.359544    73A      1.368700    74A      1.382130  
      75A      1.455702    76A      1.459661    77A      1.510250  
      78A      1.534703    79A      1.579585    80A      1.590027  
      81A      1.602587    82A      1.610188    83A      1.625892  
      84A      1.638192    85A      1.653067    86A      1.658894  
      87A      1.661097    88A      1.673070    89A      1.700891  
      90A      1.732573    91A      1.741260    92A      1.786162  
      93A      1.866416    94A      1.883497    95A      1.914817  
      96A      1.940593    97A      1.970760    98A      1.973018  
      99A      1.990299   100A      2.086591   101A      2.096144  
     102A      2.109800   103A      2.117342   104A      2.122783  
     105A      2.145636   106A      2.151518   107A      2.177743  
     108A      2.188031   109A      2.274588   110A      2.298494  
     111A      2.321328   112A      2.328185   113A      2.339326  
     114A      2.364881   115A      2.390292   116A      2.394113  
     117A      2.405256   118A      2.422751   119A      2.450049  
     120A      2.481653   121A      2.526568   122A      2.547594  
     123A      2.585833   124A      2.609929   125A      2.668635  
     126A      2.697940   127A      2.714940   128A      2.827126  
     129A      2.878772   130A      2.907847   131A      2.940810  
     132A      3.056208   133A      3.143354   134A      3.181761  
     135A      3.200218   136A      3.221214   137A      3.266442  
     138A      3.339979   139A      3.399840   140A      3.415261  
     141A      3.446816   142A      3.449259   143A      3.455356  
     144A      3.479535   145A      4.191417   146A      4.628471  
     147A      4.758140   148A      4.806297   149A      5.043184  
     150A      5.092292   151A      5.273940   152A      5.645103  
     153A      5.801233   154A      6.355146  

    Final Occupation by Irrep:
              A 
    DOCC [    41 ]

  Energy converged.

  @DF-RHF Final Energy:  -786.27597555077523

   => Energetics <=

    Nuclear Repulsion Energy =            670.4828850883475297
    One-Electron Energy =               -2427.8014181912817548
    Two-Electron Energy =                 971.0425575521616111
    DFT Exchange-Correlation Energy =       0.0000000000000000
    Empirical Dispersion Energy =           0.0000000000000000
    PCM Polarization Energy =               0.0000000000000000
    EFP Energy =                            0.0000000000000000
    Total Energy =                       -786.2759755507726140

    Alert: EFP and PCM quantities not currently incorporated into SCF psivars.

Properties will be evaluated at   0.000000,   0.000000,   0.000000 Bohr
  ==> Properties <==


Properties computed using the SCF density matrix

  Nuclear Dipole Moment: (a.u.)
     X:     1.6301      Y:     3.9976      Z:    -0.9712

  Electronic Dipole Moment: (a.u.)
     X:    -1.2766      Y:    -3.8666      Z:     1.0675

  Dipole Moment: (a.u.)
     X:     0.3535      Y:     0.1309      Z:     0.0963     Total:     0.3891

  Dipole Moment: (Debye)
     X:     0.8985      Y:     0.3328      Z:     0.2449     Total:     0.9890


  Saving occupied orbitals to File 180.

*** tstop() called on cx1-3-4-4.cx1.hpc.ic.ac.uk at Tue Jul  5 16:45:47 2016
Module time:
	user time   =      14.20 seconds =       0.24 minutes
	system time =       0.18 seconds =       0.00 minutes
	total time  =         15 seconds =       0.25 minutes
Total time:
	user time   =      14.20 seconds =       0.24 minutes
	system time =       0.18 seconds =       0.00 minutes
	total time  =         15 seconds =       0.25 minutes


Properties will be evaluated at   0.000000,   0.000000,   0.000000 Bohr

Properties computed using the  density matrix

  Nuclear Dipole Moment: (a.u.)
     X:     1.6301      Y:     3.9976      Z:    -0.9712

  Electronic Dipole Moment: (a.u.)
     X:    -1.2766      Y:    -3.8666      Z:     1.0675

  Dipole Moment: (a.u.)
     X:     0.3535      Y:     0.1309      Z:     0.0963     Total:     0.3891

  Dipole Moment: (Debye)
     X:     0.8985      Y:     0.3328      Z:     0.2449     Total:     0.9890

  Quadrupole Moment: (Debye Ang)
    XX:   -55.4200     YY:   -55.1067     ZZ:   -50.9345
    XY:     0.3577     XZ:    -1.6169     YZ:     3.1298

  Traceless Quadrupole Moment: (Debye Ang)
    XX:    -1.5996     YY:    -1.2863     ZZ:     2.8859
    XY:     0.3577     XZ:    -1.6169     YZ:     3.1298

  Mulliken Charges: (a.u.)
   Center  Symbol    Alpha    Beta     Spin     Total
       1     H     0.26475  0.26475  0.00000  0.47051
       2     O     4.36554  4.36554  0.00000 -0.73109
       3     C     3.03516  3.03516  0.00000 -0.07032
       4     C     2.43991  2.43991  0.00000  1.12018
       5     C     2.45951  2.45951  0.00000  1.08098
       6     H     0.37800  0.37800  0.00000  0.24401
       7     F     4.67567  4.67567  0.00000 -0.35134
       8     F     4.67487  4.67487  0.00000 -0.34974
       9     F     4.68019  4.68019  0.00000 -0.36037
      10     F     4.67447  4.67447  0.00000 -0.34894
      11     F     4.67264  4.67264  0.00000 -0.34527
      12     F     4.67930  4.67930  0.00000 -0.35860

   Total alpha = 41.00000, Total beta = 41.00000, Total charge =  0.00000


*** PSI4 exiting successfully. Buy a developer a beer!
