    -----------------------------------------------------------------------
          Psi4: An Open-Source Ab Initio Electronic Structure Package
                              Psi4 (no tag) Driver

                          Git: Rev {detached?}  

    J. M. Turney, A. C. Simmonett, R. M. Parrish, E. G. Hohenstein,
    F. A. Evangelista, J. T. Fermann, B. J. Mintz, L. A. Burns, J. J. Wilke,
    M. L. Abrams, N. J. Russ, M. L. Leininger, C. L. Janssen, E. T. Seidl,
    W. D. Allen, H. F. Schaefer, R. A. King, E. F. Valeev, C. D. Sherrill,
    and T. D. Crawford, WIREs Comput. Mol. Sci. 2, 556-565 (2012)
    (doi: 10.1002/wcms.93)

                         Additional Contributions by
    A. E. DePrince, M. Saitow, U. Bozkaya, A. Yu. Sokolov
    -----------------------------------------------------------------------


    Psi4 started on: Tue Jul  5 16:30:56 2016

    Process ID:  27735
    PSI4DATADIR: /export131/home/mjharvey/miniconda3/share
    Memory level set to 256.000 MB

  ==> Input File <==

--------------------------------------------------------------------------
set {
	reference rhf
	basis 6-31G*
}


set_num_threads( 1 )
memory 2 gb

molecule MOL {
0 1

H	 -0.314752	 3.001425	 -0.790005
C	 0.411227	 2.338203	 -0.303388
C	 0.065331	 0.871482	 -0.349150
O	 1.385684	 2.789984	 0.204596
C	 -0.842724	 0.447244	 0.814010
H	 0.987987	 0.302701	 -0.359619
H	 -0.450567	 0.691375	 -1.291260
C	 -1.405505	 -0.965940	 0.657130
H	 -1.660941	 1.156481	 0.888261
H	 -0.291171	 0.521761	 1.748823
H	 -1.989571	 -1.052438	 -0.253865
H	 -2.050240	 -1.219595	 1.492170
H	 -0.616608	 -1.710908	 0.611793

	symmetry c1
}
set optking {
	frozen_dihedral = ("
		6 3 5 9
	")
}

ee = energy('scf')
oeprop('DIPOLE', 'QUADRUPOLE', 'MULLIKEN_CHARGES')
f=open( 'psi4out.xyz', 'w' )
f.write( "13  " )
f.write( str(ee) + "\n" )
f.write( MOL.save_string_xyz() )
f.close()
--------------------------------------------------------------------------

  Memory set to   2.000 GiB by Python script.

*** tstart() called on cx1-3-1-3.cx1.hpc.ic.ac.uk
*** at Tue Jul  5 16:30:56 2016


         ---------------------------------------------------------
                                   SCF
            by Justin Turney, Rob Parrish, and Andy Simmonett
                              RHF Reference
                        1 Threads,   2000 MiB Core
         ---------------------------------------------------------

  ==> Geometry <==

    Molecular point group: c1
    Full point group: C1

    Geometry (in Angstrom), charge = 0, multiplicity = 1:

       Center              X                  Y                   Z               Mass       
    ------------   -----------------  -----------------  -----------------  -----------------
           H         -0.237980169573     1.910331911583    -1.000365153622     1.007825032070
           C          0.487998830427     1.247109911583    -0.513748153622    12.000000000000
           C          0.142102830427    -0.219611088417    -0.559510153622    12.000000000000
           O          1.462455830427     1.698890911583    -0.005764153622    15.994914619560
           C         -0.765952169573    -0.643849088417     0.603649846378    12.000000000000
           H          1.064758830427    -0.788392088417    -0.569979153622     1.007825032070
           H         -0.373795169573    -0.399718088417    -1.501620153622     1.007825032070
           C         -1.328733169573    -2.057033088417     0.446769846378    12.000000000000
           H         -1.584169169573     0.065387911583     0.677900846378     1.007825032070
           H         -0.214399169573    -0.569332088417     1.538462846378     1.007825032070
           H         -1.912799169573    -2.143531088417    -0.464225153622     1.007825032070
           H         -1.973468169573    -2.310688088417     1.281809846378     1.007825032070
           H         -0.539836169573    -2.802001088417     0.401432846378     1.007825032070

  Running in c1 symmetry.

  Rotational constants: A =      0.62733  B =      0.07429  C =      0.07233 [cm^-1]
  Rotational constants: A =  18806.92890  B =   2227.20817  C =   2168.43951 [MHz]
  Nuclear repulsion =  170.823696156227896

  Charge       = 0
  Multiplicity = 1
  Electrons    = 40
  Nalpha       = 20
  Nbeta        = 20

  ==> Algorithm <==

  SCF Algorithm Type is DF.
  DIIS enabled.
  MOM disabled.
  Fractional occupation disabled.
  Guess Type is CORE.
  Energy threshold   = 1.00e-06
  Density threshold  = 1.00e-06
  Integral threshold = 0.00e+00

  ==> Primary Basis <==

  Basis Set: 6-31G*
    Number of shells: 46
    Number of basis function: 91
    Number of Cartesian functions: 91
    Spherical Harmonics?: false
    Max angular momentum: 2

  ==> Pre-Iterations <==

   -------------------------------------------------------
    Irrep   Nso     Nmo     Nalpha   Nbeta   Ndocc  Nsocc
   -------------------------------------------------------
     A         91      91       0       0       0       0
   -------------------------------------------------------
    Total      91      91      20      20      20       0
   -------------------------------------------------------

 OEINTS: Overlap, kinetic, potential, dipole, and quadrupole integrals
         stored in file 35.

  ==> Integral Setup <==

  ==> DFJK: Density-Fitted J/K Matrices <==

    J tasked:                  Yes
    K tasked:                  Yes
    wK tasked:                  No
    OpenMP threads:              1
    Integrals threads:           1
    Memory (MB):              1430
    Algorithm:                Core
    Integral Cache:           NONE
    Schwarz Cutoff:          1E-12
    Fitting Condition:       1E-12

   => Auxiliary Basis Set <=

  Basis Set: 
    Number of shells: 192
    Number of basis function: 605
    Number of Cartesian functions: 605
    Spherical Harmonics?: false
    Max angular momentum: 3

  Minimum eigenvalue in the overlap matrix is 4.2759882583E-03.
  Using Symmetric Orthogonalization.
  SCF Guess: Core (One-Electron) Hamiltonian.

  ==> Iterations <==

                           Total Energy        Delta E     RMS |[F,P]|

   @DF-RHF iter   1:  -178.59996488638333   -1.78600e+02   8.05456e-02 
   @DF-RHF iter   2:  -114.98416670967245    6.36158e+01   9.87551e-02 DIIS
   @DF-RHF iter   3:  -213.56281124839134   -9.85786e+01   3.40855e-02 DIIS
   @DF-RHF iter   4:  -159.19863278544599    5.43642e+01   8.34139e-02 DIIS
   @DF-RHF iter   5:  -199.40153363100742   -4.02029e+01   5.86482e-02 DIIS
   @DF-RHF iter   6:  -211.39819595500703   -1.19967e+01   5.15089e-02 DIIS
   @DF-RHF iter   7:  -214.53270015415794   -3.13450e+00   4.15159e-02 DIIS
   @DF-RHF iter   8:  -228.04695601229653   -1.35143e+01   1.85850e-02 DIIS
   @DF-RHF iter   9:  -230.01222410949131   -1.96527e+00   1.17588e-02 DIIS
   @DF-RHF iter  10:  -230.86222005740214   -8.49996e-01   4.89964e-03 DIIS
   @DF-RHF iter  11:  -230.97129956407386   -1.09080e-01   1.57788e-03 DIIS
   @DF-RHF iter  12:  -230.98188075979957   -1.05812e-02   4.65821e-04 DIIS
   @DF-RHF iter  13:  -230.98333045191268   -1.44969e-03   2.24692e-04 DIIS
   @DF-RHF iter  14:  -230.98365396317817   -3.23511e-04   5.98873e-05 DIIS
   @DF-RHF iter  15:  -230.98368113984330   -2.71767e-05   2.47121e-05 DIIS
   @DF-RHF iter  16:  -230.98368603560502   -4.89576e-06   7.14197e-06 DIIS
   @DF-RHF iter  17:  -230.98368664916606   -6.13561e-07   2.64345e-06 DIIS
   @DF-RHF iter  18:  -230.98368680958865   -1.60423e-07   1.47023e-06 DIIS
   @DF-RHF iter  19:  -230.98368685170507   -4.21164e-08   5.97531e-07 DIIS

  ==> Post-Iterations <==

    Orbital Energies (a.u.)
    -----------------------

    Doubly Occupied:                                                      

       1A    -20.563477     2A    -11.327211     3A    -11.239113  
       4A    -11.235513     5A    -11.223531     6A     -1.403223  
       7A     -1.085008     8A     -0.976748     9A     -0.843803  
      10A     -0.787674    11A     -0.680812    12A     -0.641718  
      13A     -0.624950    14A     -0.590707    15A     -0.548474  
      16A     -0.541775    17A     -0.513549    18A     -0.488672  
      19A     -0.482658    20A     -0.410152  

    Virtual:                                                              

      21A      0.157479    22A      0.232305    23A      0.259370  
      24A      0.281225    25A      0.291249    26A      0.307534  
      27A      0.317761    28A      0.331632    29A      0.339664  
      30A      0.394572    31A      0.413583    32A      0.455641  
      33A      0.473287    34A      0.704861    35A      0.730399  
      36A      0.736979    37A      0.764362    38A      0.805049  
      39A      0.810133    40A      0.909883    41A      0.923343  
      42A      0.938252    43A      0.995217    44A      1.018123  
      45A      1.044604    46A      1.102916    47A      1.110308  
      48A      1.117309    49A      1.145986    50A      1.165288  
      51A      1.182868    52A      1.196768    53A      1.213099  
      54A      1.248012    55A      1.309784    56A      1.345276  
      57A      1.357923    58A      1.434595    59A      1.589899  
      60A      1.677205    61A      1.725631    62A      1.810512  
      63A      1.833444    64A      1.857259    65A      1.953772  
      66A      2.069859    67A      2.105936    68A      2.155677  
      69A      2.188355    70A      2.240779    71A      2.262452  
      72A      2.289681    73A      2.326536    74A      2.448323  
      75A      2.527328    76A      2.573679    77A      2.649712  
      78A      2.671900    79A      2.708375    80A      2.762012  
      81A      2.891094    82A      2.939493    83A      3.013744  
      84A      3.079170    85A      3.252083    86A      3.362419  
      87A      4.298273    88A      4.518645    89A      4.628686  
      90A      4.767323    91A      4.940669  

    Final Occupation by Irrep:
              A 
    DOCC [    20 ]

  Energy converged.

  @DF-RHF Final Energy:  -230.98368685170507

   => Energetics <=

    Nuclear Repulsion Energy =            170.8236961562278964
    One-Electron Energy =                -651.1973022468785075
    Two-Electron Energy =                 249.3899192389453106
    DFT Exchange-Correlation Energy =       0.0000000000000000
    Empirical Dispersion Energy =           0.0000000000000000
    PCM Polarization Energy =               0.0000000000000000
    EFP Energy =                            0.0000000000000000
    Total Energy =                       -230.9836868517052721

    Alert: EFP and PCM quantities not currently incorporated into SCF psivars.

Properties will be evaluated at   0.000000,   0.000000,   0.000000 Bohr
  ==> Properties <==


Properties computed using the SCF density matrix

  Nuclear Dipole Moment: (a.u.)
     X:    -5.4038      Y:    -6.5897      Z:     0.3407

  Electronic Dipole Moment: (a.u.)
     X:     4.4655      Y:     5.9353      Z:    -0.6925

  Dipole Moment: (a.u.)
     X:    -0.9383      Y:    -0.6544      Z:    -0.3518     Total:     1.1968

  Dipole Moment: (Debye)
     X:    -2.3849      Y:    -1.6634      Z:    -0.8942     Total:     3.0421


  Saving occupied orbitals to File 180.

*** tstop() called on cx1-3-1-3.cx1.hpc.ic.ac.uk at Tue Jul  5 16:31:01 2016
Module time:
	user time   =       4.40 seconds =       0.07 minutes
	system time =       0.04 seconds =       0.00 minutes
	total time  =          5 seconds =       0.08 minutes
Total time:
	user time   =       4.40 seconds =       0.07 minutes
	system time =       0.04 seconds =       0.00 minutes
	total time  =          5 seconds =       0.08 minutes


Properties will be evaluated at   0.000000,   0.000000,   0.000000 Bohr

Properties computed using the  density matrix

  Nuclear Dipole Moment: (a.u.)
     X:    -5.4038      Y:    -6.5897      Z:     0.3407

  Electronic Dipole Moment: (a.u.)
     X:     4.4655      Y:     5.9353      Z:    -0.6925

  Dipole Moment: (a.u.)
     X:    -0.9383      Y:    -0.6544      Z:    -0.3518     Total:     1.1968

  Dipole Moment: (Debye)
     X:    -2.3849      Y:    -1.6634      Z:    -0.8942     Total:     3.0421

  Quadrupole Moment: (Debye Ang)
    XX:   -35.5734     YY:   -34.9942     ZZ:   -30.5126
    XY:    -4.7142     XZ:    -0.6571     YZ:    -1.5468

  Traceless Quadrupole Moment: (Debye Ang)
    XX:    -1.8800     YY:    -1.3008     ZZ:     3.1808
    XY:    -4.7142     XZ:    -0.6571     YZ:    -1.5468

  Mulliken Charges: (a.u.)
   Center  Symbol    Alpha    Beta     Spin     Total
       1     H     0.43103  0.43103  0.00000  0.13794
       2     C     2.83758  2.83758  0.00000  0.32484
       3     C     3.20039  3.20039  0.00000 -0.40078
       4     O     4.23527  4.23527  0.00000 -0.47054
       5     C     3.16174  3.16174  0.00000 -0.32348
       6     H     0.40010  0.40010  0.00000  0.19979
       7     H     0.41679  0.41679  0.00000  0.16641
       8     C     3.24010  3.24010  0.00000 -0.48020
       9     H     0.41798  0.41798  0.00000  0.16404
      10     H     0.40801  0.40801  0.00000  0.18397
      11     H     0.41968  0.41968  0.00000  0.16064
      12     H     0.41442  0.41442  0.00000  0.17116
      13     H     0.41690  0.41690  0.00000  0.16621

   Total alpha = 20.00000, Total beta = 20.00000, Total charge =  0.00000


*** PSI4 exiting successfully. Buy a developer a beer!
