    -----------------------------------------------------------------------
          Psi4: An Open-Source Ab Initio Electronic Structure Package
                              Psi4 (no tag) Driver

                          Git: Rev {detached?}  

    J. M. Turney, A. C. Simmonett, R. M. Parrish, E. G. Hohenstein,
    F. A. Evangelista, J. T. Fermann, B. J. Mintz, L. A. Burns, J. J. Wilke,
    M. L. Abrams, N. J. Russ, M. L. Leininger, C. L. Janssen, E. T. Seidl,
    W. D. Allen, H. F. Schaefer, R. A. King, E. F. Valeev, C. D. Sherrill,
    and T. D. Crawford, WIREs Comput. Mol. Sci. 2, 556-565 (2012)
    (doi: 10.1002/wcms.93)

                         Additional Contributions by
    A. E. DePrince, M. Saitow, U. Bozkaya, A. Yu. Sokolov
    -----------------------------------------------------------------------


    Psi4 started on: Tue Jul  5 16:44:53 2016

    Process ID:  14250
    PSI4DATADIR: /export131/home/mjharvey/miniconda3/share
    Memory level set to 256.000 MB

  ==> Input File <==

--------------------------------------------------------------------------
set {
	reference rhf
	basis 6-31G*
}


set_num_threads( 1 )
memory 2 gb

molecule MOL {
0 1

H	 -2.365627	 -1.312883	 -0.379134
C	 -1.358347	 -1.274295	 0.019669
C	 -0.681945	 0.000119	 -0.470601
H	 -0.826096	 -2.155117	 -0.321105
H	 -1.409554	 -1.292283	 1.100109
C	 -1.357790	 1.274691	 0.020220
N	 0.739525	 -0.000142	 0.006128
H	 -0.594190	 0.000341	 -1.545128
H	 -2.364980	 1.313977	 -0.378631
H	 -0.825080	 2.155361	 -0.320114
H	 -1.409060	 1.292170	 1.100671
O	 1.376170	 0.993402	 -0.161607
O	 1.143584	 -0.996996	 0.524220

	symmetry c1
}
ee = energy('scf')
oeprop('DIPOLE', 'QUADRUPOLE', 'MULLIKEN_CHARGES')
f=open( 'psi4out.xyz', 'w' )
f.write( "13  " )
f.write( str(ee) + "\n" )
f.write( MOL.save_string_xyz() )
f.close()
--------------------------------------------------------------------------

  Memory set to   2.000 GiB by Python script.

*** tstart() called on cx1-3-6-2.cx1.hpc.ic.ac.uk
*** at Tue Jul  5 16:44:54 2016


         ---------------------------------------------------------
                                   SCF
            by Justin Turney, Rob Parrish, and Andy Simmonett
                              RHF Reference
                        1 Threads,   2000 MiB Core
         ---------------------------------------------------------

  ==> Geometry <==

    Molecular point group: c1
    Full point group: C1

    Geometry (in Angstrom), charge = 0, multiplicity = 1:

       Center              X                  Y                   Z               Mass       
    ------------   -----------------  -----------------  -----------------  -----------------
           H         -2.365746704842    -1.312302233533    -0.378775565228     1.007825032070
           C         -1.358466704842    -1.273714233533     0.020027434772    12.000000000000
           C         -0.682064704842     0.000699766467    -0.470242565228    12.000000000000
           H         -0.826215704842    -2.154536233533    -0.320746565228     1.007825032070
           H         -1.409673704842    -1.291702233533     1.100467434772     1.007825032070
           C         -1.357909704842     1.275271766467     0.020578434772    12.000000000000
           N          0.739405295158     0.000438766467     0.006486434772    14.003074004780
           H         -0.594309704842     0.000921766467    -1.544769565228     1.007825032070
           H         -2.365099704842     1.314557766467    -0.378272565228     1.007825032070
           H         -0.825199704842     2.155941766467    -0.319755565228     1.007825032070
           H         -1.409179704842     1.292750766467     1.101029434772     1.007825032070
           O          1.376050295158     0.993982766467    -0.161248565228    15.994914619560
           O          1.143464295158    -0.996415233533     0.524578434772    15.994914619560

  Running in c1 symmetry.

  Rotational constants: A =      0.17076  B =      0.12296  C =      0.07840 [cm^-1]
  Rotational constants: A =   5119.10626  B =   3686.16769  C =   2350.43262 [MHz]
  Nuclear repulsion =  257.665571666466633

  Charge       = 0
  Multiplicity = 1
  Electrons    = 48
  Nalpha       = 24
  Nbeta        = 24

  ==> Algorithm <==

  SCF Algorithm Type is DF.
  DIIS enabled.
  MOM disabled.
  Fractional occupation disabled.
  Guess Type is CORE.
  Energy threshold   = 1.00e-06
  Density threshold  = 1.00e-06
  Integral threshold = 0.00e+00

  ==> Primary Basis <==

  Basis Set: 6-31G*
    Number of shells: 50
    Number of basis function: 104
    Number of Cartesian functions: 104
    Spherical Harmonics?: false
    Max angular momentum: 2

  ==> Pre-Iterations <==

   -------------------------------------------------------
    Irrep   Nso     Nmo     Nalpha   Nbeta   Ndocc  Nsocc
   -------------------------------------------------------
     A        104     104       0       0       0       0
   -------------------------------------------------------
    Total     104     104      24      24      24       0
   -------------------------------------------------------

 OEINTS: Overlap, kinetic, potential, dipole, and quadrupole integrals
         stored in file 35.

  ==> Integral Setup <==

  ==> DFJK: Density-Fitted J/K Matrices <==

    J tasked:                  Yes
    K tasked:                  Yes
    wK tasked:                  No
    OpenMP threads:              1
    Integrals threads:           1
    Memory (MB):              1430
    Algorithm:                Core
    Integral Cache:           NONE
    Schwarz Cutoff:          1E-12
    Fitting Condition:       1E-12

   => Auxiliary Basis Set <=

  Basis Set: 
    Number of shells: 207
    Number of basis function: 661
    Number of Cartesian functions: 661
    Spherical Harmonics?: false
    Max angular momentum: 3

  Minimum eigenvalue in the overlap matrix is 2.5746519219E-03.
  Using Symmetric Orthogonalization.
  SCF Guess: Core (One-Electron) Hamiltonian.

  ==> Iterations <==

                           Total Energy        Delta E     RMS |[F,P]|

   @DF-RHF iter   1:  -237.58465025727139   -2.37585e+02   8.68537e-02 
   @DF-RHF iter   2:  -211.63225014311666    2.59524e+01   6.87172e-02 DIIS
   @DF-RHF iter   3:  -257.76472204667840   -4.61325e+01   7.15936e-02 DIIS
   @DF-RHF iter   4:  -317.51757139174862   -5.97528e+01   2.21631e-02 DIIS
   @DF-RHF iter   5:  -321.33771841758454   -3.82015e+00   7.90965e-03 DIIS
   @DF-RHF iter   6:  -321.69724803072467   -3.59530e-01   2.55862e-03 DIIS
   @DF-RHF iter   7:  -321.72762529274456   -3.03773e-02   1.15158e-03 DIIS
   @DF-RHF iter   8:  -321.73353203837831   -5.90675e-03   6.55018e-04 DIIS
   @DF-RHF iter   9:  -321.73591092544524   -2.37889e-03   2.67475e-04 DIIS
   @DF-RHF iter  10:  -321.73642093500365   -5.10010e-04   9.84848e-05 DIIS
   @DF-RHF iter  11:  -321.73649121622742   -7.02812e-05   3.85738e-05 DIIS
   @DF-RHF iter  12:  -321.73650585403510   -1.46378e-05   1.02772e-05 DIIS
   @DF-RHF iter  13:  -321.73650746835614   -1.61432e-06   4.36678e-06 DIIS
   @DF-RHF iter  14:  -321.73650793165308   -4.63297e-07   1.91466e-06 DIIS
   @DF-RHF iter  15:  -321.73650805033350   -1.18680e-07   7.09179e-07 DIIS

  ==> Post-Iterations <==

    Orbital Energies (a.u.)
    -----------------------

    Doubly Occupied:                                                      

       1A    -20.600976     2A    -20.598841     3A    -15.844271  
       4A    -11.306798     5A    -11.243776     6A    -11.238176  
       7A     -1.629728     8A     -1.415547     9A     -1.142960  
      10A     -0.967782    11A     -0.958121    12A     -0.812760  
      13A     -0.763835    14A     -0.726088    15A     -0.720916  
      16A     -0.639322    17A     -0.593941    18A     -0.583110  
      19A     -0.571539    20A     -0.525882    21A     -0.519148  
      22A     -0.479928    23A     -0.472848    24A     -0.447595  

    Virtual:                                                              

      25A      0.121033    26A      0.221748    27A      0.262273  
      28A      0.272291    29A      0.284852    30A      0.301036  
      31A      0.329034    32A      0.337309    33A      0.348217  
      34A      0.384748    35A      0.401644    36A      0.535763  
      37A      0.614496    38A      0.678286    39A      0.695321  
      40A      0.723625    41A      0.755776    42A      0.811623  
      43A      0.842706    44A      0.892298    45A      0.934281  
      46A      0.954519    47A      0.964836    48A      1.015530  
      49A      1.053443    50A      1.075329    51A      1.108151  
      52A      1.115107    53A      1.134953    54A      1.152549  
      55A      1.169046    56A      1.191240    57A      1.204554  
      58A      1.227236    59A      1.253396    60A      1.266025  
      61A      1.314837    62A      1.322428    63A      1.374479  
      64A      1.399265    65A      1.554780    66A      1.596750  
      67A      1.698698    68A      1.735015    69A      1.832861  
      70A      1.848616    71A      1.955928    72A      2.007975  
      73A      2.015524    74A      2.077004    75A      2.126427  
      76A      2.142636    77A      2.183873    78A      2.215375  
      79A      2.249609    80A      2.292905    81A      2.350988  
      82A      2.402241    83A      2.413566    84A      2.442261  
      85A      2.520485    86A      2.571602    87A      2.592757  
      88A      2.694954    89A      2.706603    90A      2.809363  
      91A      2.889708    92A      2.918032    93A      2.945978  
      94A      3.087973    95A      3.231254    96A      3.295616  
      97A      3.330142    98A      3.512395    99A      4.125498  
     100A      4.234251   101A      4.307991   102A      4.609018  
     103A      4.722200   104A      4.950465  

    Final Occupation by Irrep:
              A 
    DOCC [    24 ]

  Energy converged.

  @DF-RHF Final Energy:  -321.73650805033350

   => Energetics <=

    Nuclear Repulsion Energy =            257.6655716664666329
    One-Electron Energy =                -949.1965008627132647
    Two-Electron Energy =                 369.7944211459131338
    DFT Exchange-Correlation Energy =       0.0000000000000000
    Empirical Dispersion Energy =           0.0000000000000000
    PCM Polarization Energy =               0.0000000000000000
    EFP Energy =                            0.0000000000000000
    Total Energy =                       -321.7365080503335548

    Alert: EFP and PCM quantities not currently incorporated into SCF psivars.

Properties will be evaluated at   0.000000,   0.000000,   0.000000 Bohr
  ==> Properties <==


Properties computed using the SCF density matrix

  Nuclear Dipole Moment: (a.u.)
     X:    -9.1730      Y:     0.0053      Z:    -0.6928

  Electronic Dipole Moment: (a.u.)
     X:     7.6213      Y:     0.0004      Z:     0.2376

  Dipole Moment: (a.u.)
     X:    -1.5517      Y:     0.0056      Z:    -0.4551     Total:     1.6170

  Dipole Moment: (Debye)
     X:    -3.9439      Y:     0.0143      Z:    -1.1568     Total:     4.1101


  Saving occupied orbitals to File 180.

*** tstop() called on cx1-3-6-2.cx1.hpc.ic.ac.uk at Tue Jul  5 16:45:00 2016
Module time:
	user time   =       5.95 seconds =       0.10 minutes
	system time =       0.05 seconds =       0.00 minutes
	total time  =          6 seconds =       0.10 minutes
Total time:
	user time   =       5.95 seconds =       0.10 minutes
	system time =       0.05 seconds =       0.00 minutes
	total time  =          6 seconds =       0.10 minutes


Properties will be evaluated at   0.000000,   0.000000,   0.000000 Bohr

Properties computed using the  density matrix

  Nuclear Dipole Moment: (a.u.)
     X:    -9.1730      Y:     0.0053      Z:    -0.6928

  Electronic Dipole Moment: (a.u.)
     X:     7.6213      Y:     0.0004      Z:     0.2376

  Dipole Moment: (a.u.)
     X:    -1.5517      Y:     0.0056      Z:    -0.4551     Total:     1.6170

  Dipole Moment: (Debye)
     X:    -3.9439      Y:     0.0143      Z:    -1.1568     Total:     4.1101

  Quadrupole Moment: (Debye Ang)
    XX:   -39.3484     YY:   -38.3161     ZZ:   -34.7602
    XY:    -0.7237     XZ:    -0.5313     YZ:     1.5244

  Traceless Quadrupole Moment: (Debye Ang)
    XX:    -1.8735     YY:    -0.8412     ZZ:     2.7147
    XY:    -0.7237     XZ:    -0.5313     YZ:     1.5244

  Mulliken Charges: (a.u.)
   Center  Symbol    Alpha    Beta     Spin     Total
       1     H     0.41346  0.41346  0.00000  0.17308
       2     C     3.24109  3.24109  0.00000 -0.48219
       3     C     3.03017  3.03017  0.00000 -0.06034
       4     H     0.39712  0.39712  0.00000  0.20575
       5     H     0.40504  0.40504  0.00000  0.18992
       6     C     3.24886  3.24886  0.00000 -0.49771
       7     N     3.21417  3.21417  0.00000  0.57166
       8     H     0.38491  0.38491  0.00000  0.23018
       9     H     0.40871  0.40871  0.00000  0.18257
      10     H     0.39141  0.39141  0.00000  0.21717
      11     H     0.40695  0.40695  0.00000  0.18610
      12     O     4.22972  4.22972  0.00000 -0.45944
      13     O     4.22838  4.22838  0.00000 -0.45676

   Total alpha = 24.00000, Total beta = 24.00000, Total charge = -0.00000


*** PSI4 exiting successfully. Buy a developer a beer!
