    -----------------------------------------------------------------------
          Psi4: An Open-Source Ab Initio Electronic Structure Package
                              Psi4 (no tag) Driver

                          Git: Rev {detached?}  

    J. M. Turney, A. C. Simmonett, R. M. Parrish, E. G. Hohenstein,
    F. A. Evangelista, J. T. Fermann, B. J. Mintz, L. A. Burns, J. J. Wilke,
    M. L. Abrams, N. J. Russ, M. L. Leininger, C. L. Janssen, E. T. Seidl,
    W. D. Allen, H. F. Schaefer, R. A. King, E. F. Valeev, C. D. Sherrill,
    and T. D. Crawford, WIREs Comput. Mol. Sci. 2, 556-565 (2012)
    (doi: 10.1002/wcms.93)

                         Additional Contributions by
    A. E. DePrince, M. Saitow, U. Bozkaya, A. Yu. Sokolov
    -----------------------------------------------------------------------


    Psi4 started on: Tue Jul  5 16:38:53 2016

    Process ID:  19882
    PSI4DATADIR: /export131/home/mjharvey/miniconda3/share
    Memory level set to 256.000 MB

  ==> Input File <==

--------------------------------------------------------------------------
set {
	reference rhf
	basis 6-31G*
}


set_num_threads( 1 )
memory 2 gb

molecule MOL {
0 1

O	 -1.276010	 1.052711	 -0.768302
C	 -1.204840	 0.067374	 -0.106123
C	 -2.388195	 -0.672128	 0.458071
O	 -0.067104	 -0.527208	 0.221609
H	 -2.388023	 -1.694060	 0.097175
H	 -3.300579	 -0.174919	 0.164318
H	 -2.315377	 -0.706351	 1.539059
C	 0.068195	 -1.939074	 0.006531
C	 -0.321086	 -2.179434	 -1.441321
C	 -0.808598	 -2.695286	 0.992443
H	 1.104216	 -2.200794	 0.163599
H	 0.316675	 -1.611024	 -2.108718
H	 -0.221221	 -3.231943	 -1.685419
H	 -1.349700	 -1.882723	 -1.616163
H	 -0.728359	 -3.763816	 0.819756
H	 -0.502572	 -2.494045	 2.011181
H	 -1.848218	 -2.406951	 0.873858

	symmetry c1
}
set optking {
	frozen_dihedral = ("
		11 8 4 2
	")
}

ee = energy('scf')
oeprop('DIPOLE', 'QUADRUPOLE', 'MULLIKEN_CHARGES')
f=open( 'psi4out.xyz', 'w' )
f.write( "17  " )
f.write( str(ee) + "\n" )
f.write( MOL.save_string_xyz() )
f.close()
--------------------------------------------------------------------------

  Memory set to   2.000 GiB by Python script.

*** tstart() called on cx1-1-3-4.cx1.hpc.ic.ac.uk
*** at Tue Jul  5 16:38:53 2016


         ---------------------------------------------------------
                                   SCF
            by Justin Turney, Rob Parrish, and Andy Simmonett
                              RHF Reference
                        1 Threads,   2000 MiB Core
         ---------------------------------------------------------

  ==> Geometry <==

    Molecular point group: c1
    Full point group: C1

    Geometry (in Angstrom), charge = 0, multiplicity = 1:

       Center              X                  Y                   Z               Mass       
    ------------   -----------------  -----------------  -----------------  -----------------
           O         -0.407390349681     2.041674751578    -0.674556472641    15.994914619560
           C         -0.336220349681     1.056337751578    -0.012377472641    12.000000000000
           C         -1.519575349681     0.316835751578     0.551816527359    12.000000000000
           O          0.801515650319     0.461755751578     0.315354527359    15.994914619560
           H         -1.519403349681    -0.705096248422     0.190920527359     1.007825032070
           H         -2.431959349681     0.814044751578     0.258063527359     1.007825032070
           H         -1.446757349681     0.282612751578     1.632804527359     1.007825032070
           C          0.936814650319    -0.950110248422     0.100276527359    12.000000000000
           C          0.547533650319    -1.190470248422    -1.347575472641    12.000000000000
           C          0.060021650319    -1.706322248422     1.086188527359    12.000000000000
           H          1.972835650319    -1.211830248422     0.257344527359     1.007825032070
           H          1.185294650319    -0.622060248422    -2.014972472641     1.007825032070
           H          0.647398650319    -2.242979248422    -1.591673472641     1.007825032070
           H         -0.481080349681    -0.893759248422    -1.522417472641     1.007825032070
           H          0.140260650319    -2.774852248422     0.913501527359     1.007825032070
           H          0.366047650319    -1.505081248422     2.104926527359     1.007825032070
           H         -0.979598349681    -1.417987248422     0.967603527359     1.007825032070

  Running in c1 symmetry.

  Rotational constants: A =      0.13809  B =      0.07440  C =      0.06264 [cm^-1]
  Rotational constants: A =   4139.73431  B =   2230.51822  C =   1877.92758 [MHz]
  Nuclear repulsion =  336.187356917166596

  Charge       = 0
  Multiplicity = 1
  Electrons    = 56
  Nalpha       = 28
  Nbeta        = 28

  ==> Algorithm <==

  SCF Algorithm Type is DF.
  DIIS enabled.
  MOM disabled.
  Fractional occupation disabled.
  Guess Type is CORE.
  Energy threshold   = 1.00e-06
  Density threshold  = 1.00e-06
  Integral threshold = 0.00e+00

  ==> Primary Basis <==

  Basis Set: 6-31G*
    Number of shells: 62
    Number of basis function: 125
    Number of Cartesian functions: 125
    Spherical Harmonics?: false
    Max angular momentum: 2

  ==> Pre-Iterations <==

   -------------------------------------------------------
    Irrep   Nso     Nmo     Nalpha   Nbeta   Ndocc  Nsocc
   -------------------------------------------------------
     A        125     125       0       0       0       0
   -------------------------------------------------------
    Total     125     125      28      28      28       0
   -------------------------------------------------------

 OEINTS: Overlap, kinetic, potential, dipole, and quadrupole integrals
         stored in file 35.

  ==> Integral Setup <==

  ==> DFJK: Density-Fitted J/K Matrices <==

    J tasked:                  Yes
    K tasked:                  Yes
    wK tasked:                  No
    OpenMP threads:              1
    Integrals threads:           1
    Memory (MB):              1430
    Algorithm:                Core
    Integral Cache:           NONE
    Schwarz Cutoff:          1E-12
    Fitting Condition:       1E-12

   => Auxiliary Basis Set <=

  Basis Set: 
    Number of shells: 258
    Number of basis function: 817
    Number of Cartesian functions: 817
    Spherical Harmonics?: false
    Max angular momentum: 3

  Minimum eigenvalue in the overlap matrix is 3.4514031422E-03.
  Using Symmetric Orthogonalization.
  SCF Guess: Core (One-Electron) Hamiltonian.

  ==> Iterations <==

                           Total Energy        Delta E     RMS |[F,P]|

   @DF-RHF iter   1:  -261.66018298475109   -2.61660e+02   7.75789e-02 
   @DF-RHF iter   2:  -248.10226802630751    1.35579e+01   5.63323e-02 DIIS
   @DF-RHF iter   3:  -273.08041134600631   -2.49781e+01   6.28372e-02 DIIS
   @DF-RHF iter   4:  -331.17316099003830   -5.80927e+01   3.56434e-02 DIIS
   @DF-RHF iter   5:  -341.41692575697863   -1.02438e+01   1.71819e-02 DIIS
   @DF-RHF iter   6:  -344.72589272822489   -3.30897e+00   3.53159e-03 DIIS
   @DF-RHF iter   7:  -344.81525636820476   -8.93636e-02   1.37516e-03 DIIS
   @DF-RHF iter   8:  -344.82667111473796   -1.14147e-02   6.09885e-04 DIIS
   @DF-RHF iter   9:  -344.82944429057551   -2.77318e-03   1.63267e-04 DIIS
   @DF-RHF iter  10:  -344.82969977111446   -2.55481e-04   4.05834e-05 DIIS
   @DF-RHF iter  11:  -344.82972408955260   -2.43184e-05   1.17777e-05 DIIS
   @DF-RHF iter  12:  -344.82972684653254   -2.75698e-06   5.19530e-06 DIIS
   @DF-RHF iter  13:  -344.82972746718968   -6.20657e-07   2.54517e-06 DIIS
   @DF-RHF iter  14:  -344.82972766580775   -1.98618e-07   1.03471e-06 DIIS
   @DF-RHF iter  15:  -344.82972770562429   -3.98165e-08   4.13292e-07 DIIS

  ==> Post-Iterations <==

    Orbital Energies (a.u.)
    -----------------------

    Doubly Occupied:                                                      

       1A    -20.588831     2A    -20.549635     3A    -11.377287  
       4A    -11.308450     5A    -11.230652     6A    -11.230587  
       7A    -11.219602     8A     -1.462640     9A     -1.368080  
      10A     -1.083171    11A     -1.036092    12A     -0.962839  
      13A     -0.866762    14A     -0.762277    15A     -0.711867  
      16A     -0.687015    17A     -0.670888    18A     -0.628442  
      19A     -0.615153    20A     -0.596654    21A     -0.587434  
      22A     -0.552838    23A     -0.541184    24A     -0.521585  
      25A     -0.485837    26A     -0.466849    27A     -0.447385  
      28A     -0.435348  

    Virtual:                                                              

      29A      0.180292    30A      0.222205    31A      0.250038  
      32A      0.270645    33A      0.281473    34A      0.292950  
      35A      0.310383    36A      0.317918    37A      0.328474  
      38A      0.339557    39A      0.343115    40A      0.386985  
      41A      0.412903    42A      0.436976    43A      0.460039  
      44A      0.498719    45A      0.579997    46A      0.711169  
      47A      0.712001    48A      0.738764    49A      0.759037  
      50A      0.782175    51A      0.815632    52A      0.831713  
      53A      0.842087    54A      0.885924    55A      0.919535  
      56A      0.931746    57A      0.960945    58A      0.975170  
      59A      0.987049    60A      1.091512    61A      1.105015  
      62A      1.112778    63A      1.135753    64A      1.146661  
      65A      1.161142    66A      1.175411    67A      1.191140  
      68A      1.204241    69A      1.232954    70A      1.243577  
      71A      1.253795    72A      1.281415    73A      1.286068  
      74A      1.356741    75A      1.370709    76A      1.409255  
      77A      1.456687    78A      1.521628    79A      1.599520  
      80A      1.650470    81A      1.653464    82A      1.706932  
      83A      1.775190    84A      1.875361    85A      1.920004  
      86A      1.974145    87A      1.999455    88A      2.042451  
      89A      2.058133    90A      2.091792    91A      2.143573  
      92A      2.150338    93A      2.162516    94A      2.206395  
      95A      2.220335    96A      2.289142    97A      2.296745  
      98A      2.372124    99A      2.441301   100A      2.460879  
     101A      2.528817   102A      2.555624   103A      2.575215  
     104A      2.590329   105A      2.641685   106A      2.666771  
     107A      2.713133   108A      2.774832   109A      2.789770  
     110A      2.868688   111A      2.882203   112A      3.018895  
     113A      3.088207   114A      3.132080   115A      3.242822  
     116A      3.300485   117A      3.391686   118A      3.536037  
     119A      4.445459   120A      4.559469   121A      4.650637  
     122A      4.719886   123A      4.761109   124A      4.935869  
     125A      4.969472  

    Final Occupation by Irrep:
              A 
    DOCC [    28 ]

  Energy converged.

  @DF-RHF Final Energy:  -344.82972770562429

   => Energetics <=

    Nuclear Repulsion Energy =            336.1873569171665963
    One-Electron Energy =               -1136.0434550145262165
    Two-Electron Energy =                 455.0263703917356111
    DFT Exchange-Correlation Energy =       0.0000000000000000
    Empirical Dispersion Energy =           0.0000000000000000
    PCM Polarization Energy =               0.0000000000000000
    EFP Energy =                            0.0000000000000000
    Total Energy =                       -344.8297277056239523

    Alert: EFP and PCM quantities not currently incorporated into SCF psivars.

Properties will be evaluated at   0.000000,   0.000000,   0.000000 Bohr
  ==> Properties <==


Properties computed using the SCF density matrix

  Nuclear Dipole Moment: (a.u.)
     X:    -2.3858      Y:    -9.6223      Z:     1.1196

  Electronic Dipole Moment: (a.u.)
     X:     2.1440      Y:     7.9459      Z:    -0.6760

  Dipole Moment: (a.u.)
     X:    -0.2418      Y:    -1.6765      Z:     0.4436     Total:     1.7509

  Dipole Moment: (Debye)
     X:    -0.6147      Y:    -4.2611      Z:     1.1274     Total:     4.4504


  Saving occupied orbitals to File 180.

*** tstop() called on cx1-1-3-4.cx1.hpc.ic.ac.uk at Tue Jul  5 16:39:06 2016
Module time:
	user time   =      12.14 seconds =       0.20 minutes
	system time =       0.08 seconds =       0.00 minutes
	total time  =         13 seconds =       0.22 minutes
Total time:
	user time   =      12.14 seconds =       0.20 minutes
	system time =       0.08 seconds =       0.00 minutes
	total time  =         13 seconds =       0.22 minutes


Properties will be evaluated at   0.000000,   0.000000,   0.000000 Bohr

Properties computed using the  density matrix

  Nuclear Dipole Moment: (a.u.)
     X:    -2.3858      Y:    -9.6223      Z:     1.1196

  Electronic Dipole Moment: (a.u.)
     X:     2.1440      Y:     7.9459      Z:    -0.6760

  Dipole Moment: (a.u.)
     X:    -0.2418      Y:    -1.6765      Z:     0.4436     Total:     1.7509

  Dipole Moment: (Debye)
     X:    -0.6147      Y:    -4.2611      Z:     1.1274     Total:     4.4504

  Quadrupole Moment: (Debye Ang)
    XX:   -42.1351     YY:   -49.7152     ZZ:   -43.4474
    XY:    -1.1728     XZ:    -1.6162     YZ:     3.3711

  Traceless Quadrupole Moment: (Debye Ang)
    XX:     2.9642     YY:    -4.6160     ZZ:     1.6518
    XY:    -1.1728     XZ:    -1.6162     YZ:     3.3711

  Mulliken Charges: (a.u.)
   Center  Symbol    Alpha    Beta     Spin     Total
       1     O     4.26337  4.26337  0.00000 -0.52673
       2     C     2.60704  2.60704  0.00000  0.78591
       3     C     3.31976  3.31976  0.00000 -0.63951
       4     O     4.31068  4.31068  0.00000 -0.62137
       5     H     0.40219  0.40219  0.00000  0.19561
       6     H     0.39342  0.39342  0.00000  0.21317
       7     H     0.39501  0.39501  0.00000  0.20997
       8     C     2.94191  2.94191  0.00000  0.11617
       9     C     3.25936  3.25936  0.00000 -0.51872
      10     C     3.25249  3.25249  0.00000 -0.50497
      11     H     0.39669  0.39669  0.00000  0.20661
      12     H     0.39741  0.39741  0.00000  0.20518
      13     H     0.41328  0.41328  0.00000  0.17344
      14     H     0.41306  0.41306  0.00000  0.17388
      15     H     0.41681  0.41681  0.00000  0.16637
      16     H     0.40783  0.40783  0.00000  0.18434
      17     H     0.40968  0.40968  0.00000  0.18064

   Total alpha = 28.00000, Total beta = 28.00000, Total charge =  0.00000


*** PSI4 exiting successfully. Buy a developer a beer!
