    -----------------------------------------------------------------------
          Psi4: An Open-Source Ab Initio Electronic Structure Package
                              Psi4 (no tag) Driver

                          Git: Rev {detached?}  

    J. M. Turney, A. C. Simmonett, R. M. Parrish, E. G. Hohenstein,
    F. A. Evangelista, J. T. Fermann, B. J. Mintz, L. A. Burns, J. J. Wilke,
    M. L. Abrams, N. J. Russ, M. L. Leininger, C. L. Janssen, E. T. Seidl,
    W. D. Allen, H. F. Schaefer, R. A. King, E. F. Valeev, C. D. Sherrill,
    and T. D. Crawford, WIREs Comput. Mol. Sci. 2, 556-565 (2012)
    (doi: 10.1002/wcms.93)

                         Additional Contributions by
    A. E. DePrince, M. Saitow, U. Bozkaya, A. Yu. Sokolov
    -----------------------------------------------------------------------


    Psi4 started on: Tue Jul 26 13:29:08 2016

    Process ID:   9827
    PSI4DATADIR: /export131/home/mjharvey/miniconda3/share
    Memory level set to 256.000 MB

  ==> Input File <==

--------------------------------------------------------------------------
set {
	reference rhf
	basis 6-31G*
}


set_num_threads( 24 )
memory 2 gb

molecule MOL {
0 1

H	 -3.793000	 1.004000	 -0.340000
C	 -3.097000	 0.384000	 0.191000
C	 -1.977000	 0.015000	 -0.386000
H	 -3.341000	 0.079000	 1.192000
O	 -1.081000	 -0.797000	 0.234000
H	 -1.712000	 0.315000	 -1.384000
C	 0.151000	 -0.997000	 -0.369000
C	 1.143000	 0.077000	 0.017000
H	 0.082000	 -1.019000	 -1.451000
H	 0.537000	 -1.944000	 -0.023000
F	 0.696482	 0.727729	 1.081496
F	 2.323344	 -0.433435	 0.325467
F	 1.323649	 0.953770	 -0.948375

	symmetry c1
}
set optking {
	frozen_dihedral = ("
		3 5 7 9,
		6 3 2 1,
		6 3 5 7
	")
}

ee = energy('scf')
oeprop('DIPOLE', 'QUADRUPOLE', 'MULLIKEN_CHARGES')
f=open( 'psi4out.xyz', 'w' )
f.write( "13  " )
f.write( str(ee) + "\n" )
f.write( MOL.save_string_xyz() )
f.close()
--------------------------------------------------------------------------

  Memory set to   2.000 GiB by Python script.

*** tstart() called on cx1b.hpc.ic.ac.uk
*** at Tue Jul 26 13:29:08 2016


         ---------------------------------------------------------
                                   SCF
            by Justin Turney, Rob Parrish, and Andy Simmonett
                              RHF Reference
                       24 Threads,   2000 MiB Core
         ---------------------------------------------------------

  ==> Geometry <==

    Molecular point group: c1
    Full point group: C1

    Geometry (in Angstrom), charge = 0, multiplicity = 1:

       Center              X                  Y                   Z               Mass       
    ------------   -----------------  -----------------  -----------------  -----------------
           H         -3.884861296097     0.979132518776    -0.370703608576     1.007825032070
           C         -3.188861296097     0.359132518776     0.160296391424    12.000000000000
           C         -2.068861296097    -0.009867481224    -0.416703608576    12.000000000000
           H         -3.432861296097     0.054132518776     1.161296391424     1.007825032070
           O         -1.172861296097    -0.821867481224     0.203296391424    15.994914619560
           H         -1.803861296097     0.290132518776    -1.414703608576     1.007825032070
           C          0.059138703903    -1.021867481224    -0.399703608576    12.000000000000
           C          1.051138703903     0.052132518776    -0.013703608576    12.000000000000
           H         -0.009861296097    -1.043867481224    -1.481703608576     1.007825032070
           H          0.445138703903    -1.968867481224    -0.053703608576     1.007825032070
           F          0.604620703903     0.702861518776     1.050792391424    18.998403224000
           F          2.231482703903    -0.458302481224     0.294763391424    18.998403224000
           F          1.231787703903     0.928902518776    -0.979078608576    18.998403224000

  Running in c1 symmetry.

  Rotational constants: A =      0.15034  B =      0.04005  C =      0.03913 [cm^-1]
  Rotational constants: A =   4507.13280  B =   1200.63178  C =   1173.16948 [MHz]
  Nuclear repulsion =  414.243650442921535

  Charge       = 0
  Multiplicity = 1
  Electrons    = 64
  Nalpha       = 32
  Nbeta        = 32

  ==> Algorithm <==

  SCF Algorithm Type is DF.
  DIIS enabled.
  MOM disabled.
  Fractional occupation disabled.
  Guess Type is CORE.
  Energy threshold   = 1.00e-06
  Density threshold  = 1.00e-06
  Integral threshold = 0.00e+00

  ==> Primary Basis <==

  Basis Set: 6-31G*
    Number of shells: 58
    Number of basis function: 130
    Number of Cartesian functions: 130
    Spherical Harmonics?: false
    Max angular momentum: 2

  ==> Pre-Iterations <==

   -------------------------------------------------------
    Irrep   Nso     Nmo     Nalpha   Nbeta   Ndocc  Nsocc
   -------------------------------------------------------
     A        130     130       0       0       0       0
   -------------------------------------------------------
    Total     130     130      32      32      32       0
   -------------------------------------------------------

 OEINTS: Overlap, kinetic, potential, dipole, and quadrupole integrals
         stored in file 35.

  ==> Integral Setup <==

  ==> DFJK: Density-Fitted J/K Matrices <==

    J tasked:                  Yes
    K tasked:                  Yes
    wK tasked:                  No
    OpenMP threads:             24
    Integrals threads:          24
    Memory (MB):              1430
    Algorithm:                Core
    Integral Cache:           NONE
    Schwarz Cutoff:          1E-12
    Fitting Condition:       1E-12

   => Auxiliary Basis Set <=

  Basis Set: 
    Number of shells: 237
    Number of basis function: 773
    Number of Cartesian functions: 773
    Spherical Harmonics?: false
    Max angular momentum: 3

  Minimum eigenvalue in the overlap matrix is 1.6874918351E-03.
  Using Symmetric Orthogonalization.
  SCF Guess: Core (One-Electron) Hamiltonian.

  ==> Iterations <==

                           Total Energy        Delta E     RMS |[F,P]|

   @DF-RHF iter   1:  -440.26755869524698   -4.40268e+02   7.40823e-02 
   @DF-RHF iter   2:  -175.68462668950451    2.64583e+02   9.73152e-02 DIIS
   @DF-RHF iter   3:  -490.66941119758872   -3.14985e+02   3.95694e-02 DIIS
   @DF-RHF iter   4:  -407.10872534032058    8.35607e+01   7.26790e-02 DIIS
   @DF-RHF iter   5:  -520.12663406184470   -1.13018e+02   2.09108e-02 DIIS
   @DF-RHF iter   6:  -526.86465776617263   -6.73802e+00   9.66628e-03 DIIS
   @DF-RHF iter   7:  -527.48926624338424   -6.24608e-01   2.07768e-03 DIIS
   @DF-RHF iter   8:  -527.51888849349143   -2.96223e-02   9.59266e-04 DIIS
   @DF-RHF iter   9:  -527.52659110504055   -7.70261e-03   4.65759e-04 DIIS
   @DF-RHF iter  10:  -527.52839898726734   -1.80788e-03   2.41424e-04 DIIS
   @DF-RHF iter  11:  -527.52904795134668   -6.48964e-04   4.83595e-05 DIIS
   @DF-RHF iter  12:  -527.52907688072992   -2.89294e-05   1.78521e-05 DIIS
   @DF-RHF iter  13:  -527.52908248661447   -5.60588e-06   7.20745e-06 DIIS
   @DF-RHF iter  14:  -527.52908336154474   -8.74930e-07   1.93393e-06 DIIS
   @DF-RHF iter  15:  -527.52908345912510   -9.75804e-08   6.86789e-07 DIIS

  ==> Post-Iterations <==

    Orbital Energies (a.u.)
    -----------------------

    Doubly Occupied:                                                      

       1A    -26.345782     2A    -26.343562     3A    -26.333368  
       4A    -20.605839     5A    -11.501832     6A    -11.316487  
       7A    -11.299118     8A    -11.216374     9A     -1.740920  
      10A     -1.641896    11A     -1.633037    12A     -1.436265  
      13A     -1.083538    14A     -1.016458    15A     -0.923704  
      16A     -0.836104    17A     -0.828462    18A     -0.819069  
      19A     -0.794232    20A     -0.721660    21A     -0.714697  
      22A     -0.693847    23A     -0.675373    24A     -0.659305  
      25A     -0.655580    26A     -0.640754    27A     -0.622216  
      28A     -0.582645    29A     -0.562260    30A     -0.524805  
      31A     -0.512288    32A     -0.351653  

    Virtual:                                                              

      33A      0.188486    34A      0.229663    35A      0.270628  
      36A      0.275917    37A      0.293275    38A      0.311558  
      39A      0.342784    40A      0.413613    41A      0.421372  
      42A      0.457970    43A      0.479659    44A      0.507577  
      45A      0.538096    46A      0.688373    47A      0.699071  
      48A      0.709693    49A      0.741796    50A      0.755266  
      51A      0.776269    52A      0.809598    53A      0.829435  
      54A      0.886740    55A      0.898842    56A      0.928483  
      57A      0.995998    58A      1.080243    59A      1.101073  
      60A      1.131850    61A      1.147426    62A      1.161726  
      63A      1.203823    64A      1.222362    65A      1.236302  
      66A      1.329231    67A      1.344899    68A      1.361097  
      69A      1.397785    70A      1.434427    71A      1.457576  
      72A      1.479404    73A      1.590725    74A      1.613619  
      75A      1.631201    76A      1.647153    77A      1.654062  
      78A      1.670682    79A      1.679349    80A      1.727869  
      81A      1.745046    82A      1.786162    83A      1.883597  
      84A      1.909330    85A      1.949695    86A      2.000513  
      87A      2.019748    88A      2.052091    89A      2.110806  
      90A      2.126461    91A      2.146370    92A      2.159016  
      93A      2.223966    94A      2.255305    95A      2.280745  
      96A      2.291502    97A      2.308550    98A      2.330128  
      99A      2.357656   100A      2.399379   101A      2.413347  
     102A      2.416642   103A      2.461489   104A      2.494730  
     105A      2.555797   106A      2.592652   107A      2.642531  
     108A      2.685978   109A      2.748887   110A      2.830421  
     111A      2.899551   112A      2.915749   113A      2.980422  
     114A      3.098694   115A      3.135397   116A      3.174459  
     117A      3.215895   118A      3.289726   119A      3.414170  
     120A      3.428397   121A      3.443559   122A      3.475268  
     123A      4.347888   124A      4.548496   125A      4.617196  
     126A      4.719471   127A      4.917775   128A      4.969047  
     129A      5.036378   130A      5.873101  

    Final Occupation by Irrep:
              A 
    DOCC [    32 ]

  Energy converged.

  @DF-RHF Final Energy:  -527.52908345912510

   => Energetics <=

    Nuclear Repulsion Energy =            414.2436504429215347
    One-Electron Energy =               -1552.2792378984377137
    Two-Electron Energy =                 610.5065039963909612
    DFT Exchange-Correlation Energy =       0.0000000000000000
    Empirical Dispersion Energy =           0.0000000000000000
    PCM Polarization Energy =               0.0000000000000000
    EFP Energy =                            0.0000000000000000
    Total Energy =                       -527.5290834591252178

    Alert: EFP and PCM quantities not currently incorporated into SCF psivars.

Properties will be evaluated at   0.000000,   0.000000,   0.000000 Bohr
  ==> Properties <==


Properties computed using the SCF density matrix

  Nuclear Dipole Moment: (a.u.)
     X:   -11.9862      Y:    -2.6946      Z:    -2.3692

  Electronic Dipole Moment: (a.u.)
     X:    11.7522      Y:     2.3023      Z:     1.6367

  Dipole Moment: (a.u.)
     X:    -0.2340      Y:    -0.3924      Z:    -0.7325     Total:     0.8633

  Dipole Moment: (Debye)
     X:    -0.5948      Y:    -0.9973      Z:    -1.8619     Total:     2.1943


  Saving occupied orbitals to File 180.

*** tstop() called on cx1b.hpc.ic.ac.uk at Tue Jul 26 13:29:15 2016
Module time:
	user time   =      66.85 seconds =       1.11 minutes
	system time =       2.75 seconds =       0.05 minutes
	total time  =          7 seconds =       0.12 minutes
Total time:
	user time   =      66.85 seconds =       1.11 minutes
	system time =       2.75 seconds =       0.05 minutes
	total time  =          7 seconds =       0.12 minutes


Properties will be evaluated at   0.000000,   0.000000,   0.000000 Bohr

Properties computed using the  density matrix

  Nuclear Dipole Moment: (a.u.)
     X:   -11.9862      Y:    -2.6946      Z:    -2.3692

  Electronic Dipole Moment: (a.u.)
     X:    11.7522      Y:     2.3023      Z:     1.6367

  Dipole Moment: (a.u.)
     X:    -0.2340      Y:    -0.3924      Z:    -0.7325     Total:     0.8633

  Dipole Moment: (Debye)
     X:    -0.5948      Y:    -0.9973      Z:    -1.8619     Total:     2.1943

  Quadrupole Moment: (Debye Ang)
    XX:   -45.6777     YY:   -44.3752     ZZ:   -43.3239
    XY:    -3.2538     XZ:     0.7844     YZ:     0.5626

  Traceless Quadrupole Moment: (Debye Ang)
    XX:    -1.2188     YY:     0.0837     ZZ:     1.1350
    XY:    -3.2538     XZ:     0.7844     YZ:     0.5626

  Mulliken Charges: (a.u.)
   Center  Symbol    Alpha    Beta     Spin     Total
       1     H     0.40717  0.40717  0.00000  0.18565
       2     C     3.23375  3.23375  0.00000 -0.46750
       3     C     2.89923  2.89923  0.00000  0.20153
       4     H     0.40129  0.40129  0.00000  0.19743
       5     O     4.29708  4.29708  0.00000 -0.59415
       6     H     0.40659  0.40659  0.00000  0.18682
       7     C     3.08012  3.08012  0.00000 -0.16025
       8     C     2.44588  2.44588  0.00000  1.10825
       9     H     0.40273  0.40273  0.00000  0.19454
      10     H     0.38701  0.38701  0.00000  0.22598
      11     F     4.67802  4.67802  0.00000 -0.35604
      12     F     4.68219  4.68219  0.00000 -0.36439
      13     F     4.67894  4.67894  0.00000 -0.35788

   Total alpha = 32.00000, Total beta = 32.00000, Total charge =  0.00000


*** PSI4 exiting successfully. Buy a developer a beer!
