    -----------------------------------------------------------------------
          Psi4: An Open-Source Ab Initio Electronic Structure Package
                              Psi4 (no tag) Driver

                          Git: Rev {detached?}  

    J. M. Turney, A. C. Simmonett, R. M. Parrish, E. G. Hohenstein,
    F. A. Evangelista, J. T. Fermann, B. J. Mintz, L. A. Burns, J. J. Wilke,
    M. L. Abrams, N. J. Russ, M. L. Leininger, C. L. Janssen, E. T. Seidl,
    W. D. Allen, H. F. Schaefer, R. A. King, E. F. Valeev, C. D. Sherrill,
    and T. D. Crawford, WIREs Comput. Mol. Sci. 2, 556-565 (2012)
    (doi: 10.1002/wcms.93)

                         Additional Contributions by
    A. E. DePrince, M. Saitow, U. Bozkaya, A. Yu. Sokolov
    -----------------------------------------------------------------------


    Psi4 started on: Tue Jul  5 17:02:16 2016

    Process ID:  16392
    PSI4DATADIR: /export131/home/mjharvey/miniconda3/share
    Memory level set to 256.000 MB

  ==> Input File <==

--------------------------------------------------------------------------
set {
	reference rhf
	basis 6-31G*
}


set_num_threads( 1 )
memory 2 gb

molecule MOL {
0 1

H	 -2.586807	 0.506666	 3.715379
C	 -1.769697	 0.101908	 3.145040
C	 -1.324476	 -1.187562	 3.394428
C	 -1.165272	 0.871058	 2.163199
H	 -1.794113	 -1.783006	 4.156171
C	 -0.273784	 -1.707308	 2.660674
H	 -1.511756	 1.870421	 1.971291
C	 -0.113353	 0.352866	 1.427458
H	 0.083922	 -2.703087	 2.839959
C	 0.335201	 -0.939145	 1.674985
H	 0.357315	 0.944525	 0.666713
C	 1.463013	 -1.545621	 0.912827
O	 1.970282	 -0.730723	 0.000018
O	 1.873995	 -2.648335	 1.097149
C	 3.377318	 -0.566646	 -0.000065
H	 3.695437	 -0.028981	 -0.881264
H	 3.789299	 -1.563704	 0.000236
H	 3.695516	 -0.028316	 0.880770

	symmetry c1
}
set optking {
	frozen_dihedral = ("
		12 13 15 16,
		13 12 10 6
	")
}

ee = energy('scf')
oeprop('DIPOLE', 'QUADRUPOLE', 'MULLIKEN_CHARGES')
f=open( 'psi4out.xyz', 'w' )
f.write( "18  " )
f.write( str(ee) + "\n" )
f.write( MOL.save_string_xyz() )
f.close()
--------------------------------------------------------------------------

  Memory set to   2.000 GiB by Python script.

*** tstart() called on cx1-3-5-2.cx1.hpc.ic.ac.uk
*** at Tue Jul  5 17:02:17 2016


         ---------------------------------------------------------
                                   SCF
            by Justin Turney, Rob Parrish, and Andy Simmonett
                              RHF Reference
                        1 Threads,   2000 MiB Core
         ---------------------------------------------------------

  ==> Geometry <==

    Molecular point group: c1
    Full point group: C1

    Geometry (in Angstrom), charge = 0, multiplicity = 1:

       Center              X                  Y                   Z               Mass       
    ------------   -----------------  -----------------  -----------------  -----------------
           H         -3.127847860551     1.332086193574     2.131097420936     1.007825032070
           C         -2.310737860551     0.927328193574     1.560758420936    12.000000000000
           C         -1.865516860551    -0.362141806426     1.810146420936    12.000000000000
           C         -1.706312860551     1.696478193574     0.578917420936    12.000000000000
           H         -2.335153860551    -0.957585806426     2.571889420936     1.007825032070
           C         -0.814824860551    -0.881887806426     1.076392420936    12.000000000000
           H         -2.052796860551     2.695841193574     0.387009420936     1.007825032070
           C         -0.654393860551     1.178286193574    -0.156823579064    12.000000000000
           H         -0.457118860551    -1.877666806426     1.255677420936     1.007825032070
           C         -0.205839860551    -0.113724806426     0.090703420936    12.000000000000
           H         -0.183725860551     1.769945193574    -0.917568579064     1.007825032070
           C          0.921972139449    -0.720200806426    -0.671454579064    12.000000000000
           O          1.429241139449     0.094697193574    -1.584263579064    15.994914619560
           O          1.332954139449    -1.822914806426    -0.487132579064    15.994914619560
           C          2.836277139449     0.258774193574    -1.584346579064    12.000000000000
           H          3.154396139449     0.796439193574    -2.465545579064     1.007825032070
           H          3.248258139449    -0.738283806426    -1.584045579064     1.007825032070
           H          3.154475139449     0.797104193574    -0.703511579064     1.007825032070

  Running in c1 symmetry.

  Rotational constants: A =      0.10862  B =      0.02967  C =      0.02395 [cm^-1]
  Rotational constants: A =   3256.22971  B =    889.55947  C =    718.08119 [MHz]
  Nuclear repulsion =  494.287836270464936

  Charge       = 0
  Multiplicity = 1
  Electrons    = 72
  Nalpha       = 36
  Nbeta        = 36

  ==> Algorithm <==

  SCF Algorithm Type is DF.
  DIIS enabled.
  MOM disabled.
  Fractional occupation disabled.
  Guess Type is CORE.
  Energy threshold   = 1.00e-06
  Density threshold  = 1.00e-06
  Integral threshold = 0.00e+00

  ==> Primary Basis <==

  Basis Set: 6-31G*
    Number of shells: 76
    Number of basis function: 166
    Number of Cartesian functions: 166
    Spherical Harmonics?: false
    Max angular momentum: 2

  ==> Pre-Iterations <==

   -------------------------------------------------------
    Irrep   Nso     Nmo     Nalpha   Nbeta   Ndocc  Nsocc
   -------------------------------------------------------
     A        166     166       0       0       0       0
   -------------------------------------------------------
    Total     166     166      36      36      36       0
   -------------------------------------------------------

 OEINTS: Overlap, kinetic, potential, dipole, and quadrupole integrals
         stored in file 35.

  ==> Integral Setup <==

  ==> DFJK: Density-Fitted J/K Matrices <==

    J tasked:                  Yes
    K tasked:                  Yes
    wK tasked:                  No
    OpenMP threads:              1
    Integrals threads:           1
    Memory (MB):              1430
    Algorithm:                Core
    Integral Cache:           NONE
    Schwarz Cutoff:          1E-12
    Fitting Condition:       1E-12

   => Auxiliary Basis Set <=

  Basis Set: 
    Number of shells: 312
    Number of basis function: 1010
    Number of Cartesian functions: 1010
    Spherical Harmonics?: false
    Max angular momentum: 3

  Minimum eigenvalue in the overlap matrix is 4.3423231480E-04.
  Using Symmetric Orthogonalization.
  SCF Guess: Core (One-Electron) Hamiltonian.

  ==> Iterations <==

                           Total Energy        Delta E     RMS |[F,P]|

   @DF-RHF iter   1:  -347.09359070897870   -3.47094e+02   6.54570e-02 
   @DF-RHF iter   2:  -301.51543194123417    4.55782e+01   5.70190e-02 DIIS
   @DF-RHF iter   3:  -382.74063194997166   -8.12252e+01   5.26781e-02 DIIS
   @DF-RHF iter   4:  -416.77325306269449   -3.40326e+01   4.32496e-02 DIIS
   @DF-RHF iter   5:  -422.65390347220261   -5.88065e+00   3.53295e-02 DIIS
   @DF-RHF iter   6:  -455.72700665077207   -3.30731e+01   9.24604e-03 DIIS
   @DF-RHF iter   7:  -456.90598542955081   -1.17898e+00   5.61787e-03 DIIS
   @DF-RHF iter   8:  -457.31287191773890   -4.06886e-01   1.08899e-03 DIIS
   @DF-RHF iter   9:  -457.33286004472427   -1.99881e-02   4.91949e-04 DIIS
   @DF-RHF iter  10:  -457.33699548575464   -4.13544e-03   1.24928e-04 DIIS
   @DF-RHF iter  11:  -457.33764153319396   -6.46047e-04   5.06391e-05 DIIS
   @DF-RHF iter  12:  -457.33777200641975   -1.30473e-04   2.57867e-05 DIIS
   @DF-RHF iter  13:  -457.33780509269423   -3.30863e-05   1.08122e-05 DIIS
   @DF-RHF iter  14:  -457.33781389539729   -8.80270e-06   3.89034e-06 DIIS
   @DF-RHF iter  15:  -457.33781487562817   -9.80231e-07   1.52308e-06 DIIS
   @DF-RHF iter  16:  -457.33781498929773   -1.13670e-07   5.06353e-07 DIIS

  ==> Post-Iterations <==

    Orbital Energies (a.u.)
    -----------------------

    Doubly Occupied:                                                      

       1A    -20.595316     2A    -20.548726     3A    -11.378809  
       4A    -11.287163     5A    -11.246872     6A    -11.246135  
       7A    -11.244699     8A    -11.242614     9A    -11.238608  
      10A    -11.237739    11A     -1.468844    12A     -1.364782  
      13A     -1.166176    14A     -1.046827    15A     -1.025922  
      16A     -0.978212    17A     -0.864206    18A     -0.835660  
      19A     -0.777799    20A     -0.739434    21A     -0.682731  
      22A     -0.676721    23A     -0.669664    24A     -0.635370  
      25A     -0.624614    26A     -0.602680    27A     -0.595321  
      28A     -0.560270    29A     -0.524034    30A     -0.516412  
      31A     -0.501807    32A     -0.497435    33A     -0.457588  
      34A     -0.442810    35A     -0.346198    36A     -0.342083  

    Virtual:                                                              

      37A      0.095118    38A      0.139692    39A      0.232097  
      40A      0.236292    41A      0.262252    42A      0.291456  
      43A      0.301825    44A      0.312436    45A      0.320102  
      46A      0.328405    47A      0.338266    48A      0.348210  
      49A      0.388132    50A      0.445445    51A      0.469600  
      52A      0.477840    53A      0.490339    54A      0.500647  
      55A      0.559972    56A      0.584940    57A      0.701737  
      58A      0.712700    59A      0.731094    60A      0.740492  
      61A      0.750443    62A      0.774045    63A      0.782093  
      64A      0.801916    65A      0.814182    66A      0.817642  
      67A      0.830440    68A      0.831991    69A      0.834343  
      70A      0.850377    71A      0.858566    72A      0.900147  
      73A      0.913713    74A      0.972722    75A      0.981301  
      76A      0.994218    77A      1.024326    78A      1.093869  
      79A      1.097954    80A      1.101720    81A      1.112363  
      82A      1.115447    83A      1.124749    84A      1.143682  
      85A      1.161505    86A      1.188723    87A      1.206916  
      88A      1.214318    89A      1.234888    90A      1.239655  
      91A      1.283397    92A      1.297170    93A      1.320415  
      94A      1.354882    95A      1.363268    96A      1.407476  
      97A      1.452981    98A      1.498585    99A      1.504215  
     100A      1.538327   101A      1.571944   102A      1.614982  
     103A      1.640193   104A      1.691542   105A      1.702099  
     106A      1.712345   107A      1.723428   108A      1.758499  
     109A      1.767024   110A      1.783127   111A      1.831363  
     112A      1.867712   113A      1.989456   114A      1.998548  
     115A      2.059195   116A      2.079511   117A      2.121220  
     118A      2.130673   119A      2.170859   120A      2.209955  
     121A      2.224788   122A      2.248470   123A      2.317384  
     124A      2.336301   125A      2.364672   126A      2.384339  
     127A      2.406278   128A      2.426060   129A      2.456289  
     130A      2.463020   131A      2.485331   132A      2.490367  
     133A      2.518741   134A      2.552542   135A      2.622654  
     136A      2.637577   137A      2.656125   138A      2.674946  
     139A      2.689524   140A      2.858875   141A      2.870374  
     142A      2.923025   143A      2.936807   144A      2.957255  
     145A      3.001833   146A      3.059486   147A      3.111188  
     148A      3.120282   149A      3.131542   150A      3.203713  
     151A      3.233317   152A      3.324544   153A      3.376785  
     154A      3.521983   155A      3.594834   156A      3.849200  
     157A      4.392661   158A      4.517546   159A      4.537743  
     160A      4.546550   161A      4.665243   162A      4.702736  
     163A      4.744198   164A      4.848720   165A      4.975146  
     166A      5.152015  

    Final Occupation by Irrep:
              A 
    DOCC [    36 ]

  Energy converged.

  @DF-RHF Final Energy:  -457.33781498929773

   => Energetics <=

    Nuclear Repulsion Energy =            494.2878362704649362
    One-Electron Energy =               -1602.8306556012271358
    Two-Electron Energy =                 651.2050043414649281
    DFT Exchange-Correlation Energy =       0.0000000000000000
    Empirical Dispersion Energy =           0.0000000000000000
    PCM Polarization Energy =               0.0000000000000000
    EFP Energy =                            0.0000000000000000
    Total Energy =                       -457.3378149892971578

    Alert: EFP and PCM quantities not currently incorporated into SCF psivars.

Properties will be evaluated at   0.000000,   0.000000,   0.000000 Bohr
  ==> Properties <==


Properties computed using the SCF density matrix

  Nuclear Dipole Moment: (a.u.)
     X:     1.3262      Y:     3.5708      Z:     0.6228

  Electronic Dipole Moment: (a.u.)
     X:    -1.4011      Y:    -2.4931      Z:    -0.3528

  Dipole Moment: (a.u.)
     X:    -0.0749      Y:     1.0777      Z:     0.2701     Total:     1.1136

  Dipole Moment: (Debye)
     X:    -0.1904      Y:     2.7393      Z:     0.6864     Total:     2.8304


  Saving occupied orbitals to File 180.

*** tstop() called on cx1-3-5-2.cx1.hpc.ic.ac.uk at Tue Jul  5 17:02:41 2016
Module time:
	user time   =      23.58 seconds =       0.39 minutes
	system time =       0.26 seconds =       0.00 minutes
	total time  =         24 seconds =       0.40 minutes
Total time:
	user time   =      23.58 seconds =       0.39 minutes
	system time =       0.26 seconds =       0.00 minutes
	total time  =         24 seconds =       0.40 minutes


Properties will be evaluated at   0.000000,   0.000000,   0.000000 Bohr

Properties computed using the  density matrix

  Nuclear Dipole Moment: (a.u.)
     X:     1.3262      Y:     3.5708      Z:     0.6228

  Electronic Dipole Moment: (a.u.)
     X:    -1.4011      Y:    -2.4931      Z:    -0.3528

  Dipole Moment: (a.u.)
     X:    -0.0749      Y:     1.0777      Z:     0.2701     Total:     1.1136

  Dipole Moment: (Debye)
     X:    -0.1904      Y:     2.7393      Z:     0.6864     Total:     2.8304

  Quadrupole Moment: (Debye Ang)
    XX:   -49.7484     YY:   -59.6425     ZZ:   -56.2127
    XY:     2.9859     XZ:    -6.3563     YZ:    -3.1279

  Traceless Quadrupole Moment: (Debye Ang)
    XX:     5.4528     YY:    -4.4413     ZZ:    -1.0115
    XY:     2.9859     XZ:    -6.3563     YZ:    -3.1279

  Mulliken Charges: (a.u.)
   Center  Symbol    Alpha    Beta     Spin     Total
       1     H     0.39501  0.39501  0.00000  0.20998
       2     C     3.08960  3.08960  0.00000 -0.17921
       3     C     3.10703  3.10703  0.00000 -0.21407
       4     C     3.10693  3.10693  0.00000 -0.21385
       5     H     0.39517  0.39517  0.00000  0.20966
       6     C     3.08613  3.08613  0.00000 -0.17225
       7     H     0.39614  0.39614  0.00000  0.20772
       8     C     3.08802  3.08802  0.00000 -0.17605
       9     H     0.37591  0.37591  0.00000  0.24818
      10     C     3.07900  3.07900  0.00000 -0.15799
      11     H     0.38179  0.38179  0.00000  0.23643
      12     C     2.58362  2.58362  0.00000  0.83276
      13     O     4.31749  4.31749  0.00000 -0.63498
      14     O     4.27953  4.27953  0.00000 -0.55906
      15     C     3.09900  3.09900  0.00000 -0.19801
      16     H     0.40512  0.40512  0.00000  0.18977
      17     H     0.39873  0.39873  0.00000  0.20253
      18     H     0.41578  0.41578  0.00000  0.16844

   Total alpha = 36.00000, Total beta = 36.00000, Total charge = -0.00000


*** PSI4 exiting successfully. Buy a developer a beer!
