    -----------------------------------------------------------------------
          Psi4: An Open-Source Ab Initio Electronic Structure Package
                              Psi4 (no tag) Driver

                          Git: Rev {detached?}  

    J. M. Turney, A. C. Simmonett, R. M. Parrish, E. G. Hohenstein,
    F. A. Evangelista, J. T. Fermann, B. J. Mintz, L. A. Burns, J. J. Wilke,
    M. L. Abrams, N. J. Russ, M. L. Leininger, C. L. Janssen, E. T. Seidl,
    W. D. Allen, H. F. Schaefer, R. A. King, E. F. Valeev, C. D. Sherrill,
    and T. D. Crawford, WIREs Comput. Mol. Sci. 2, 556-565 (2012)
    (doi: 10.1002/wcms.93)

                         Additional Contributions by
    A. E. DePrince, M. Saitow, U. Bozkaya, A. Yu. Sokolov
    -----------------------------------------------------------------------


    Psi4 started on: Tue Jul  5 16:30:15 2016

    Process ID:  12343
    PSI4DATADIR: /export131/home/mjharvey/miniconda3/share
    Memory level set to 256.000 MB

  ==> Input File <==

--------------------------------------------------------------------------
set {
	reference rhf
	basis 6-31G*
}


set_num_threads( 1 )
memory 2 gb

molecule MOL {
0 1

H	 0.128683	 2.587879	 -0.440636
C	 0.557503	 1.679937	 -0.867300
N	 0.538815	 0.649616	 0.000000
O	 0.984756	 1.646305	 -1.983334
C	 1.521968	 -0.411503	 0.000000
H	 -0.192644	 0.624219	 0.672761
H	 2.150599	 -0.357004	 -0.881901
H	 0.999455	 -1.354525	 0.000000
H	 2.150599	 -0.357004	 0.881901

	symmetry c1
}
set optking {
	frozen_dihedral = ("
		6 3 5 7
	")
}

ee = energy('scf')
oeprop('DIPOLE', 'QUADRUPOLE', 'MULLIKEN_CHARGES')
f=open( 'psi4out.xyz', 'w' )
f.write( "9  " )
f.write( str(ee) + "\n" )
f.write( MOL.save_string_xyz() )
f.close()
--------------------------------------------------------------------------

  Memory set to   2.000 GiB by Python script.

*** tstart() called on cx1-1-4-3.cx1.hpc.ic.ac.uk
*** at Tue Jul  5 16:30:16 2016


         ---------------------------------------------------------
                                   SCF
            by Justin Turney, Rob Parrish, and Andy Simmonett
                              RHF Reference
                        1 Threads,   2000 MiB Core
         ---------------------------------------------------------

  ==> Geometry <==

    Molecular point group: c1
    Full point group: C1

    Geometry (in Angstrom), charge = 0, multiplicity = 1:

       Center              X                  Y                   Z               Mass       
    ------------   -----------------  -----------------  -----------------  -----------------
           H         -0.777992010215     1.710416553967     0.269034814181     1.007825032070
           C         -0.349172010215     0.802474553967    -0.157629185819    12.000000000000
           N         -0.367860010215    -0.227846446033     0.709670814181    14.003074004780
           O          0.078080989785     0.768842553967    -1.273663185819    15.994914619560
           C          0.615292989785    -1.288965446033     0.709670814181    12.000000000000
           H         -1.099319010215    -0.253243446033     1.382431814181     1.007825032070
           H          1.243923989785    -1.234466446033    -0.172230185819     1.007825032070
           H          0.092779989785    -2.231987446033     0.709670814181     1.007825032070
           H          1.243923989785    -1.234466446033     1.591571814181     1.007825032070

  Running in c1 symmetry.

  Rotational constants: A =      0.70429  B =      0.19905  C =      0.16202 [cm^-1]
  Rotational constants: A =  21114.20429  B =   5967.29129  C =   4857.22435 [MHz]
  Nuclear repulsion =  122.171665703682365

  Charge       = 0
  Multiplicity = 1
  Electrons    = 32
  Nalpha       = 16
  Nbeta        = 16

  ==> Algorithm <==

  SCF Algorithm Type is DF.
  DIIS enabled.
  MOM disabled.
  Fractional occupation disabled.
  Guess Type is CORE.
  Energy threshold   = 1.00e-06
  Density threshold  = 1.00e-06
  Integral threshold = 0.00e+00

  ==> Primary Basis <==

  Basis Set: 6-31G*
    Number of shells: 34
    Number of basis function: 70
    Number of Cartesian functions: 70
    Spherical Harmonics?: false
    Max angular momentum: 2

  ==> Pre-Iterations <==

   -------------------------------------------------------
    Irrep   Nso     Nmo     Nalpha   Nbeta   Ndocc  Nsocc
   -------------------------------------------------------
     A         70      70       0       0       0       0
   -------------------------------------------------------
    Total      70      70      16      16      16       0
   -------------------------------------------------------

 OEINTS: Overlap, kinetic, potential, dipole, and quadrupole integrals
         stored in file 35.

  ==> Integral Setup <==

  ==> DFJK: Density-Fitted J/K Matrices <==

    J tasked:                  Yes
    K tasked:                  Yes
    wK tasked:                  No
    OpenMP threads:              1
    Integrals threads:           1
    Memory (MB):              1430
    Algorithm:                Core
    Integral Cache:           NONE
    Schwarz Cutoff:          1E-12
    Fitting Condition:       1E-12

   => Auxiliary Basis Set <=

  Basis Set: 
    Number of shells: 141
    Number of basis function: 449
    Number of Cartesian functions: 449
    Spherical Harmonics?: false
    Max angular momentum: 3

  Minimum eigenvalue in the overlap matrix is 4.8268367725E-03.
  Using Symmetric Orthogonalization.
  SCF Guess: Core (One-Electron) Hamiltonian.

  ==> Iterations <==

                           Total Energy        Delta E     RMS |[F,P]|

   @DF-RHF iter   1:  -166.82577151984776   -1.66826e+02   9.44359e-02 
   @DF-RHF iter   2:  -130.15583262283076    3.66699e+01   8.31572e-02 DIIS
   @DF-RHF iter   3:  -190.12894775705456   -5.99731e+01   5.35007e-02 DIIS
   @DF-RHF iter   4:  -207.15294650747165   -1.70240e+01   1.83916e-02 DIIS
   @DF-RHF iter   5:  -207.89195429307478   -7.39008e-01   5.19757e-03 DIIS
   @DF-RHF iter   6:  -207.94789137273631   -5.59371e-02   8.56233e-04 DIIS
   @DF-RHF iter   7:  -207.95006138756366   -2.17001e-03   2.17730e-04 DIIS
   @DF-RHF iter   8:  -207.95027842361412   -2.17036e-04   8.77128e-05 DIIS
   @DF-RHF iter   9:  -207.95030614389947   -2.77203e-05   4.74541e-05 DIIS
   @DF-RHF iter  10:  -207.95031407856436   -7.93466e-06   2.36563e-05 DIIS
   @DF-RHF iter  11:  -207.95031631808263   -2.23952e-06   8.38285e-06 DIIS
   @DF-RHF iter  12:  -207.95031656686825   -2.48786e-07   1.83585e-06 DIIS
   @DF-RHF iter  13:  -207.95031658850655   -2.16383e-08   6.94561e-07 DIIS

  ==> Post-Iterations <==

    Orbital Energies (a.u.)
    -----------------------

    Doubly Occupied:                                                      

       1A    -20.531281     2A    -15.582927     3A    -11.344448  
       4A    -11.261638     5A     -1.390907     6A     -1.234278  
       7A     -0.967303     8A     -0.808183     9A     -0.742246  
      10A     -0.641993    11A     -0.632768    12A     -0.594963  
      13A     -0.556619    14A     -0.529193    15A     -0.426160  
      16A     -0.386341  

    Virtual:                                                              

      17A      0.197024    18A      0.227394    19A      0.268688  
      20A      0.293622    21A      0.318021    22A      0.322754  
      23A      0.385876    24A      0.450978    25A      0.566628  
      26A      0.711405    27A      0.720127    28A      0.778580  
      29A      0.816573    30A      0.861937    31A      0.941059  
      32A      0.986285    33A      1.026988    34A      1.074893  
      35A      1.099761    36A      1.118389    37A      1.145598  
      38A      1.182588    39A      1.204569    40A      1.222659  
      41A      1.315623    42A      1.326669    43A      1.420077  
      44A      1.437868    45A      1.583001    46A      1.673899  
      47A      1.795003    48A      1.827220    49A      1.851894  
      50A      2.057307    51A      2.139518    52A      2.151990  
      53A      2.234326    54A      2.314673    55A      2.369633  
      56A      2.432183    57A      2.541790    58A      2.588495  
      59A      2.660015    60A      2.765847    61A      2.814765  
      62A      2.923219    63A      3.037731    64A      3.141959  
      65A      3.325095    66A      3.471836    67A      4.270406  
      68A      4.351765    69A      4.585517    70A      4.725428  

    Final Occupation by Irrep:
              A 
    DOCC [    16 ]

  Energy converged.

  @DF-RHF Final Energy:  -207.95031658850655

   => Energetics <=

    Nuclear Repulsion Energy =            122.1716657036823648
    One-Electron Energy =                -524.9815136739770196
    Two-Electron Energy =                 194.8595313817879742
    DFT Exchange-Correlation Energy =       0.0000000000000000
    Empirical Dispersion Energy =           0.0000000000000000
    PCM Polarization Energy =               0.0000000000000000
    EFP Energy =                            0.0000000000000000
    Total Energy =                       -207.9503165885066664

    Alert: EFP and PCM quantities not currently incorporated into SCF psivars.

Properties will be evaluated at   0.000000,   0.000000,   0.000000 Bohr
  ==> Properties <==


Properties computed using the SCF density matrix

  Nuclear Dipole Moment: (a.u.)
     X:     0.6608      Y:    -3.0366      Z:     3.5359

  Electronic Dipole Moment: (a.u.)
     X:    -1.0518      Y:     2.6240      Z:    -2.0991

  Dipole Moment: (a.u.)
     X:    -0.3910      Y:    -0.4125      Z:     1.4368     Total:     1.5451

  Dipole Moment: (Debye)
     X:    -0.9939      Y:    -1.0485      Z:     3.6520     Total:     3.9274


  Saving occupied orbitals to File 180.

*** tstop() called on cx1-1-4-3.cx1.hpc.ic.ac.uk at Tue Jul  5 16:30:19 2016
Module time:
	user time   =       2.80 seconds =       0.05 minutes
	system time =       0.02 seconds =       0.00 minutes
	total time  =          3 seconds =       0.05 minutes
Total time:
	user time   =       2.80 seconds =       0.05 minutes
	system time =       0.02 seconds =       0.00 minutes
	total time  =          3 seconds =       0.05 minutes


Properties will be evaluated at   0.000000,   0.000000,   0.000000 Bohr

Properties computed using the  density matrix

  Nuclear Dipole Moment: (a.u.)
     X:     0.6608      Y:    -3.0366      Z:     3.5359

  Electronic Dipole Moment: (a.u.)
     X:    -1.0518      Y:     2.6240      Z:    -2.0991

  Dipole Moment: (a.u.)
     X:    -0.3910      Y:    -0.4125      Z:     1.4368     Total:     1.5451

  Dipole Moment: (Debye)
     X:    -0.9939      Y:    -1.0485      Z:     3.6520     Total:     3.9274

  Quadrupole Moment: (Debye Ang)
    XX:   -22.0868     YY:   -22.8734     ZZ:   -27.0646
    XY:    -1.5971     XZ:    -1.0589     YZ:     1.5070

  Traceless Quadrupole Moment: (Debye Ang)
    XX:     1.9215     YY:     1.1349     ZZ:    -3.0564
    XY:    -1.5971     XZ:    -1.0589     YZ:     1.5070

  Mulliken Charges: (a.u.)
   Center  Symbol    Alpha    Beta     Spin     Total
       1     H     0.42895  0.42895  0.00000  0.14210
       2     C     2.74913  2.74913  0.00000  0.50174
       3     N     3.87859  3.87859  0.00000 -0.75718
       4     O     4.27328  4.27328  0.00000 -0.54655
       5     C     3.14210  3.14210  0.00000 -0.28420
       6     H     0.30903  0.30903  0.00000  0.38195
       7     H     0.38994  0.38994  0.00000  0.22011
       8     H     0.41408  0.41408  0.00000  0.17185
       9     H     0.41490  0.41490  0.00000  0.17019

   Total alpha = 16.00000, Total beta = 16.00000, Total charge =  0.00000


*** PSI4 exiting successfully. Buy a developer a beer!
