    -----------------------------------------------------------------------
          Psi4: An Open-Source Ab Initio Electronic Structure Package
                              Psi4 (no tag) Driver

                          Git: Rev {detached?}  

    J. M. Turney, A. C. Simmonett, R. M. Parrish, E. G. Hohenstein,
    F. A. Evangelista, J. T. Fermann, B. J. Mintz, L. A. Burns, J. J. Wilke,
    M. L. Abrams, N. J. Russ, M. L. Leininger, C. L. Janssen, E. T. Seidl,
    W. D. Allen, H. F. Schaefer, R. A. King, E. F. Valeev, C. D. Sherrill,
    and T. D. Crawford, WIREs Comput. Mol. Sci. 2, 556-565 (2012)
    (doi: 10.1002/wcms.93)

                         Additional Contributions by
    A. E. DePrince, M. Saitow, U. Bozkaya, A. Yu. Sokolov
    -----------------------------------------------------------------------


    Psi4 started on: Tue Jul  5 16:39:53 2016

    Process ID:  23492
    PSI4DATADIR: /export131/home/mjharvey/miniconda3/share
    Memory level set to 256.000 MB

  ==> Input File <==

--------------------------------------------------------------------------
set {
	reference rhf
	basis 6-31G*
}


set_num_threads( 1 )
memory 2 gb

molecule MOL {
0 1

O	 1.396631	 0.700939	 0.962190
C	 0.861134	 0.272526	 -0.014869
C	 -0.623889	 -0.118271	 -0.003699
C	 1.658245	 0.102516	 -1.296164
C	 -0.895332	 -1.256461	 -1.002431
C	 -1.473649	 1.103340	 -0.370799
C	 -0.983900	 -0.581483	 1.422328
H	 -0.615301	 -0.972064	 -2.012700
H	 -1.954261	 -1.493213	 -1.010207
H	 -0.360539	 -2.164946	 -0.747760
H	 -1.227476	 1.468527	 -1.361691
H	 -2.526716	 0.838935	 -0.358521
H	 -1.314819	 1.915855	 0.325860
H	 -2.039679	 -0.828001	 1.472951
H	 -0.427637	 -1.464071	 1.720694
H	 -0.789023	 0.202493	 2.147048
H	 1.443623	 0.928515	 -1.967822
H	 2.711854	 0.121259	 -1.053938
H	 1.418552	 -0.814455	 -1.820504

	symmetry c1
}
ee = energy('scf')
oeprop('DIPOLE', 'QUADRUPOLE', 'MULLIKEN_CHARGES')
f=open( 'psi4out.xyz', 'w' )
f.write( "19  " )
f.write( str(ee) + "\n" )
f.write( MOL.save_string_xyz() )
f.close()
--------------------------------------------------------------------------

  Memory set to   2.000 GiB by Python script.

*** tstart() called on cx1-3-15-2.cx1.hpc.ic.ac.uk
*** at Tue Jul  5 16:39:54 2016


         ---------------------------------------------------------
                                   SCF
            by Justin Turney, Rob Parrish, and Andy Simmonett
                              RHF Reference
                        1 Threads,   2000 MiB Core
         ---------------------------------------------------------

  ==> Geometry <==

    Molecular point group: c1
    Full point group: C1

    Geometry (in Angstrom), charge = 0, multiplicity = 1:

       Center              X                  Y                   Z               Mass       
    ------------   -----------------  -----------------  -----------------  -----------------
           O          1.405379007550     0.668981345572     1.007155736865    15.994914619560
           C          0.869882007550     0.240568345572     0.030096736865    12.000000000000
           C         -0.615140992450    -0.150228654428     0.041266736865    12.000000000000
           C          1.666993007550     0.070558345572    -1.251198263135    12.000000000000
           C         -0.886583992450    -1.288418654428    -0.957465263135    12.000000000000
           C         -1.464900992450     1.071382345572    -0.325833263135    12.000000000000
           C         -0.975151992450    -0.613440654428     1.467293736865    12.000000000000
           H         -0.606552992450    -1.004021654428    -1.967734263135     1.007825032070
           H         -1.945512992450    -1.525170654428    -0.965241263135     1.007825032070
           H         -0.351790992450    -2.196903654428    -0.702794263135     1.007825032070
           H         -1.218727992450     1.436569345572    -1.316725263135     1.007825032070
           H         -2.517967992450     0.806977345572    -0.313555263135     1.007825032070
           H         -1.306070992450     1.883897345572     0.370825736865     1.007825032070
           H         -2.030930992450    -0.859958654428     1.517916736865     1.007825032070
           H         -0.418888992450    -1.496028654428     1.765659736865     1.007825032070
           H         -0.780274992450     0.170535345572     2.192013736865     1.007825032070
           H          1.452371007550     0.896557345572    -1.922856263135     1.007825032070
           H          2.720602007550     0.089301345572    -1.008972263135     1.007825032070
           H          1.427300007550    -0.846412654428    -1.775538263135     1.007825032070

  Running in c1 symmetry.

  Rotational constants: A =      0.10717  B =      0.07688  C =      0.06406 [cm^-1]
  Rotational constants: A =   3212.96851  B =   2304.76445  C =   1920.35472 [MHz]
  Nuclear repulsion =  326.366250393344444

  Charge       = 0
  Multiplicity = 1
  Electrons    = 56
  Nalpha       = 28
  Nbeta        = 28

  ==> Algorithm <==

  SCF Algorithm Type is DF.
  DIIS enabled.
  MOM disabled.
  Fractional occupation disabled.
  Guess Type is CORE.
  Energy threshold   = 1.00e-06
  Density threshold  = 1.00e-06
  Integral threshold = 0.00e+00

  ==> Primary Basis <==

  Basis Set: 6-31G*
    Number of shells: 66
    Number of basis function: 129
    Number of Cartesian functions: 129
    Spherical Harmonics?: false
    Max angular momentum: 2

  ==> Pre-Iterations <==

   -------------------------------------------------------
    Irrep   Nso     Nmo     Nalpha   Nbeta   Ndocc  Nsocc
   -------------------------------------------------------
     A        129     129       0       0       0       0
   -------------------------------------------------------
    Total     129     129      28      28      28       0
   -------------------------------------------------------

 OEINTS: Overlap, kinetic, potential, dipole, and quadrupole integrals
         stored in file 35.

  ==> Integral Setup <==

  ==> DFJK: Density-Fitted J/K Matrices <==

    J tasked:                  Yes
    K tasked:                  Yes
    wK tasked:                  No
    OpenMP threads:              1
    Integrals threads:           1
    Memory (MB):              1430
    Algorithm:                Core
    Integral Cache:           NONE
    Schwarz Cutoff:          1E-12
    Fitting Condition:       1E-12

   => Auxiliary Basis Set <=

  Basis Set: 
    Number of shells: 276
    Number of basis function: 867
    Number of Cartesian functions: 867
    Spherical Harmonics?: false
    Max angular momentum: 3

  Minimum eigenvalue in the overlap matrix is 3.2119135446E-03.
  Using Symmetric Orthogonalization.
  SCF Guess: Core (One-Electron) Hamiltonian.

  ==> Iterations <==

                           Total Energy        Delta E     RMS |[F,P]|

   @DF-RHF iter   1:  -207.71554277952089   -2.07716e+02   9.16496e-02 
   @DF-RHF iter   2:  -248.69135875843119   -4.09758e+01   4.22924e-02 DIIS
   @DF-RHF iter   3:  -240.53340720890742    8.15795e+00   6.75699e-02 DIIS
   @DF-RHF iter   4:  -290.06471722221113   -4.95313e+01   4.18407e-02 DIIS
   @DF-RHF iter   5:  -298.03624062812696   -7.97152e+00   3.08880e-02 DIIS
   @DF-RHF iter   6:  -305.62398289160785   -7.58774e+00   1.80497e-02 DIIS
   @DF-RHF iter   7:  -308.34290726270638   -2.71892e+00   8.07708e-03 DIIS
   @DF-RHF iter   8:  -308.95961783686596   -6.16711e-01   2.94706e-03 DIIS
   @DF-RHF iter   9:  -309.04803135470445   -8.84135e-02   1.19703e-03 DIIS
   @DF-RHF iter  10:  -309.05810386744440   -1.00725e-02   2.52104e-04 DIIS
   @DF-RHF iter  11:  -309.05927023055369   -1.16636e-03   1.28944e-04 DIIS
   @DF-RHF iter  12:  -309.05949860943213   -2.28379e-04   4.62377e-05 DIIS
   @DF-RHF iter  13:  -309.05954687177427   -4.82623e-05   1.36289e-05 DIIS
   @DF-RHF iter  14:  -309.05955116978032   -4.29801e-06   3.28980e-06 DIIS
   @DF-RHF iter  15:  -309.05955141150935   -2.41729e-07   1.01882e-06 DIIS
   @DF-RHF iter  16:  -309.05955143495703   -2.34477e-08   4.14798e-07 DIIS

  ==> Post-Iterations <==

    Orbital Energies (a.u.)
    -----------------------

    Doubly Occupied:                                                      

       1A    -20.548204     2A    -11.323017     3A    -11.246420  
       4A    -11.225237     5A    -11.223367     6A    -11.223054  
       7A    -11.210292     8A     -1.394683     9A     -1.109975  
      10A     -1.002204    11A     -0.945847    12A     -0.935525  
      13A     -0.835397    14A     -0.703291    15A     -0.666706  
      16A     -0.631910    17A     -0.619295    18A     -0.594076  
      19A     -0.590959    20A     -0.569786    21A     -0.550294  
      22A     -0.539563    23A     -0.525037    24A     -0.510832  
      25A     -0.499832    26A     -0.470501    27A     -0.464697  
      28A     -0.392064  

    Virtual:                                                              

      29A      0.166245    30A      0.210191    31A      0.263859  
      32A      0.278373    33A      0.281313    34A      0.299718  
      35A      0.304816    36A      0.307895    37A      0.328508  
      38A      0.348092    39A      0.351078    40A      0.366303  
      41A      0.378248    42A      0.387734    43A      0.392701  
      44A      0.422354    45A      0.434985    46A      0.494629  
      47A      0.525694    48A      0.689705    49A      0.697856  
      50A      0.717843    51A      0.759664    52A      0.772174  
      53A      0.791648    54A      0.836884    55A      0.866181  
      56A      0.895225    57A      0.916449    58A      0.954318  
      59A      0.966657    60A      0.993967    61A      1.010004  
      62A      1.050583    63A      1.063510    64A      1.079603  
      65A      1.109867    66A      1.125062    67A      1.142266  
      68A      1.157310    69A      1.158637    70A      1.174021  
      71A      1.183878    72A      1.201711    73A      1.210220  
      74A      1.216576    75A      1.230390    76A      1.255698  
      77A      1.271959    78A      1.289048    79A      1.318143  
      80A      1.362464    81A      1.410816    82A      1.427041  
      83A      1.526475    84A      1.638245    85A      1.643181  
      86A      1.729786    87A      1.811329    88A      1.859055  
      89A      1.916181    90A      1.947328    91A      1.990393  
      92A      2.022985    93A      2.087114    94A      2.097146  
      95A      2.136897    96A      2.180731    97A      2.201435  
      98A      2.231555    99A      2.270096   100A      2.293746  
     101A      2.313989   102A      2.398967   103A      2.409945  
     104A      2.439166   105A      2.489305   106A      2.502498  
     107A      2.565241   108A      2.603201   109A      2.605591  
     110A      2.611950   111A      2.624133   112A      2.688393  
     113A      2.731284   114A      2.809696   115A      2.876705  
     116A      2.913705   117A      2.993291   118A      3.036466  
     119A      3.089641   120A      3.173855   121A      3.389993  
     122A      3.408288   123A      4.487619   124A      4.555611  
     125A      4.674006   126A      4.748676   127A      4.770193  
     128A      4.879819   129A      5.144923  

    Final Occupation by Irrep:
              A 
    DOCC [    28 ]

  Energy converged.

  @DF-RHF Final Energy:  -309.05955143495703

   => Energetics <=

    Nuclear Repulsion Energy =            326.3662503933444441
    One-Electron Energy =               -1065.7473842627134673
    Two-Electron Energy =                 430.3215824344138127
    DFT Exchange-Correlation Energy =       0.0000000000000000
    Empirical Dispersion Energy =           0.0000000000000000
    PCM Polarization Energy =               0.0000000000000000
    EFP Energy =                            0.0000000000000000
    Total Energy =                       -309.0595514349552104

    Alert: EFP and PCM quantities not currently incorporated into SCF psivars.

Properties will be evaluated at   0.000000,   0.000000,   0.000000 Bohr
  ==> Properties <==


Properties computed using the SCF density matrix

  Nuclear Dipole Moment: (a.u.)
     X:    -5.2210      Y:    -2.4761      Z:    -3.8641

  Electronic Dipole Moment: (a.u.)
     X:     4.6354      Y:     2.1023      Z:     2.9333

  Dipole Moment: (a.u.)
     X:    -0.5856      Y:    -0.3737      Z:    -0.9308     Total:     1.1615

  Dipole Moment: (Debye)
     X:    -1.4884      Y:    -0.9499      Z:    -2.3660     Total:     2.9522


  Saving occupied orbitals to File 180.

*** tstop() called on cx1-3-15-2.cx1.hpc.ic.ac.uk at Tue Jul  5 16:40:06 2016
Module time:
	user time   =      11.38 seconds =       0.19 minutes
	system time =       0.06 seconds =       0.00 minutes
	total time  =         12 seconds =       0.20 minutes
Total time:
	user time   =      11.38 seconds =       0.19 minutes
	system time =       0.06 seconds =       0.00 minutes
	total time  =         12 seconds =       0.20 minutes


Properties will be evaluated at   0.000000,   0.000000,   0.000000 Bohr

Properties computed using the  density matrix

  Nuclear Dipole Moment: (a.u.)
     X:    -5.2210      Y:    -2.4761      Z:    -3.8641

  Electronic Dipole Moment: (a.u.)
     X:     4.6354      Y:     2.1023      Z:     2.9333

  Dipole Moment: (a.u.)
     X:    -0.5856      Y:    -0.3737      Z:    -0.9308     Total:     1.1615

  Dipole Moment: (Debye)
     X:    -1.4884      Y:    -0.9499      Z:    -2.3660     Total:     2.9522

  Quadrupole Moment: (Debye Ang)
    XX:   -46.7397     YY:   -45.1762     ZZ:   -46.7789
    XY:    -2.0094     XZ:    -3.8906     YZ:    -1.7240

  Traceless Quadrupole Moment: (Debye Ang)
    XX:    -0.5081     YY:     1.0555     ZZ:    -0.5473
    XY:    -2.0094     XZ:    -3.8906     YZ:    -1.7240

  Mulliken Charges: (a.u.)
   Center  Symbol    Alpha    Beta     Spin     Total
       1     O     4.26580  4.26580  0.00000 -0.53161
       2     C     2.72653  2.72653  0.00000  0.54694
       3     C     3.06432  3.06432  0.00000 -0.12863
       4     C     3.29125  3.29125  0.00000 -0.58249
       5     C     3.24550  3.24550  0.00000 -0.49099
       6     C     3.23762  3.23762  0.00000 -0.47525
       7     C     3.23087  3.23087  0.00000 -0.46174
       8     H     0.41720  0.41720  0.00000  0.16560
       9     H     0.41382  0.41382  0.00000  0.17236
      10     H     0.41507  0.41507  0.00000  0.16987
      11     H     0.41956  0.41956  0.00000  0.16088
      12     H     0.41374  0.41374  0.00000  0.17252
      13     H     0.40709  0.40709  0.00000  0.18582
      14     H     0.42285  0.42285  0.00000  0.15431
      15     H     0.41756  0.41756  0.00000  0.16488
      16     H     0.40321  0.40321  0.00000  0.19358
      17     H     0.40560  0.40560  0.00000  0.18880
      18     H     0.39605  0.39605  0.00000  0.20790
      19     H     0.40637  0.40637  0.00000  0.18726

   Total alpha = 28.00000, Total beta = 28.00000, Total charge = -0.00000


*** PSI4 exiting successfully. Buy a developer a beer!
