    -----------------------------------------------------------------------
          Psi4: An Open-Source Ab Initio Electronic Structure Package
                              Psi4 (no tag) Driver

                          Git: Rev {detached?}  

    J. M. Turney, A. C. Simmonett, R. M. Parrish, E. G. Hohenstein,
    F. A. Evangelista, J. T. Fermann, B. J. Mintz, L. A. Burns, J. J. Wilke,
    M. L. Abrams, N. J. Russ, M. L. Leininger, C. L. Janssen, E. T. Seidl,
    W. D. Allen, H. F. Schaefer, R. A. King, E. F. Valeev, C. D. Sherrill,
    and T. D. Crawford, WIREs Comput. Mol. Sci. 2, 556-565 (2012)
    (doi: 10.1002/wcms.93)

                         Additional Contributions by
    A. E. DePrince, M. Saitow, U. Bozkaya, A. Yu. Sokolov
    -----------------------------------------------------------------------


    Psi4 started on: Tue Jul  5 16:27:50 2016

    Process ID:  28016
    PSI4DATADIR: /export131/home/mjharvey/miniconda3/share
    Memory level set to 256.000 MB

  ==> Input File <==

--------------------------------------------------------------------------
set {
	reference rhf
	basis 6-31G*
}


set_num_threads( 1 )
memory 2 gb

molecule MOL {
0 1

H	 -0.293175	 -1.115534	 0.821772
N	 -0.626943	 -0.667432	 -0.000092
C	 -1.979713	 -0.158776	 0.000050
C	 0.208865	 -0.563203	 -1.061566
H	 -2.520245	 -0.492427	 -0.879443
H	 -1.934741	 0.918111	 -0.004428
H	 -2.517790	 -0.485056	 0.883818
C	 1.582197	 -1.165821	 -0.842938
O	 -0.103048	 -0.039019	 -2.095082
H	 1.504316	 -2.225838	 -0.622366
H	 2.169861	 -1.029716	 -1.738384
H	 2.083070	 -0.685521	 -0.008208

	symmetry c1
}
set optking {
	frozen_dihedral = ("
		3 2 4 9
	")
}

ee = energy('scf')
oeprop('DIPOLE', 'QUADRUPOLE', 'MULLIKEN_CHARGES')
f=open( 'psi4out.xyz', 'w' )
f.write( "12  " )
f.write( str(ee) + "\n" )
f.write( MOL.save_string_xyz() )
f.close()
--------------------------------------------------------------------------

  Memory set to   2.000 GiB by Python script.

*** tstart() called on cx1-3-2-3.cx1.hpc.ic.ac.uk
*** at Tue Jul  5 16:27:51 2016


         ---------------------------------------------------------
                                   SCF
            by Justin Turney, Rob Parrish, and Andy Simmonett
                              RHF Reference
                        1 Threads,   2000 MiB Core
         ---------------------------------------------------------

  ==> Geometry <==

    Molecular point group: c1
    Full point group: C1

    Geometry (in Angstrom), charge = 0, multiplicity = 1:

       Center              X                  Y                   Z               Mass       
    ------------   -----------------  -----------------  -----------------  -----------------
           H         -0.098634860847    -0.598376031052     1.614688477581     1.007825032070
           N         -0.432402860847    -0.150274031052     0.792824477581    14.003074004780
           C         -1.785172860847     0.358381968948     0.792966477581    12.000000000000
           C          0.403405139153    -0.046045031052    -0.268649522419    12.000000000000
           H         -2.325704860847     0.024730968948    -0.086526522419     1.007825032070
           H         -1.740200860847     1.435268968948     0.788488477581     1.007825032070
           H         -2.323249860847     0.032101968948     1.676734477581     1.007825032070
           C          1.776737139153    -0.648663031052    -0.050021522419    12.000000000000
           O          0.091492139153     0.478138968948    -1.302165522419    15.994914619560
           H          1.698856139153    -1.708680031052     0.170550477581     1.007825032070
           H          2.364401139153    -0.512558031052    -0.945467522419     1.007825032070
           H          2.277610139153    -0.168363031052     0.784708477581     1.007825032070

  Running in c1 symmetry.

  Rotational constants: A =      0.33872  B =      0.12950  C =      0.09704 [cm^-1]
  Rotational constants: A =  10154.47323  B =   3882.43456  C =   2909.27081 [MHz]
  Nuclear repulsion =  181.167446302214415

  Charge       = 0
  Multiplicity = 1
  Electrons    = 40
  Nalpha       = 20
  Nbeta        = 20

  ==> Algorithm <==

  SCF Algorithm Type is DF.
  DIIS enabled.
  MOM disabled.
  Fractional occupation disabled.
  Guess Type is CORE.
  Energy threshold   = 1.00e-06
  Density threshold  = 1.00e-06
  Integral threshold = 0.00e+00

  ==> Primary Basis <==

  Basis Set: 6-31G*
    Number of shells: 44
    Number of basis function: 89
    Number of Cartesian functions: 89
    Spherical Harmonics?: false
    Max angular momentum: 2

  ==> Pre-Iterations <==

   -------------------------------------------------------
    Irrep   Nso     Nmo     Nalpha   Nbeta   Ndocc  Nsocc
   -------------------------------------------------------
     A         89      89       0       0       0       0
   -------------------------------------------------------
    Total      89      89      20      20      20       0
   -------------------------------------------------------

 OEINTS: Overlap, kinetic, potential, dipole, and quadrupole integrals
         stored in file 35.

  ==> Integral Setup <==

  ==> DFJK: Density-Fitted J/K Matrices <==

    J tasked:                  Yes
    K tasked:                  Yes
    wK tasked:                  No
    OpenMP threads:              1
    Integrals threads:           1
    Memory (MB):              1430
    Algorithm:                Core
    Integral Cache:           NONE
    Schwarz Cutoff:          1E-12
    Fitting Condition:       1E-12

   => Auxiliary Basis Set <=

  Basis Set: 
    Number of shells: 183
    Number of basis function: 580
    Number of Cartesian functions: 580
    Spherical Harmonics?: false
    Max angular momentum: 3

  Minimum eigenvalue in the overlap matrix is 3.6315675614E-03.
  Using Symmetric Orthogonalization.
  SCF Guess: Core (One-Electron) Hamiltonian.

  ==> Iterations <==

                           Total Energy        Delta E     RMS |[F,P]|

   @DF-RHF iter   1:  -191.09605727375933   -1.91096e+02   8.58038e-02 
   @DF-RHF iter   2:  -192.93228569278367   -1.83623e+00   5.94277e-02 DIIS
   @DF-RHF iter   3:  -219.56814856263637   -2.66359e+01   6.48174e-02 DIIS
   @DF-RHF iter   4:  -242.84467138342487   -2.32765e+01   2.84514e-02 DIIS
   @DF-RHF iter   5:  -245.81214039110873   -2.96747e+00   1.52521e-02 DIIS
   @DF-RHF iter   6:  -246.87649412069104   -1.06435e+00   5.18230e-03 DIIS
   @DF-RHF iter   7:  -246.98752456846657   -1.11030e-01   1.77780e-03 DIIS
   @DF-RHF iter   8:  -247.00260975209832   -1.50852e-02   4.78258e-04 DIIS
   @DF-RHF iter   9:  -247.00442454168169   -1.81479e-03   1.97162e-04 DIIS
   @DF-RHF iter  10:  -247.00472944955627   -3.04908e-04   7.27525e-05 DIIS
   @DF-RHF iter  11:  -247.00479848355067   -6.90340e-05   3.49079e-05 DIIS
   @DF-RHF iter  12:  -247.00480834827815   -9.86473e-06   8.65205e-06 DIIS
   @DF-RHF iter  13:  -247.00480919667135   -8.48393e-07   2.52059e-06 DIIS
   @DF-RHF iter  14:  -247.00480926331900   -6.66477e-08   7.15099e-07 DIIS

  ==> Post-Iterations <==

    Orbital Energies (a.u.)
    -----------------------

    Doubly Occupied:                                                      

       1A    -20.516643     2A    -15.580753     3A    -11.341933  
       4A    -11.256346     5A    -11.229138     6A     -1.383596  
       7A     -1.228062     8A     -1.015358     9A     -0.932291  
      10A     -0.785783    11A     -0.688515    12A     -0.647152  
      13A     -0.634090    14A     -0.585425    15A     -0.580615  
      16A     -0.554080    17A     -0.547711    18A     -0.504081  
      19A     -0.412305    20A     -0.384568  

    Virtual:                                                              

      21A      0.210167    22A      0.217065    23A      0.264957  
      24A      0.277246    25A      0.307029    26A      0.315482  
      27A      0.331013    28A      0.360761    29A      0.378226  
      30A      0.425497    31A      0.496521    32A      0.586393  
      33A      0.720661    34A      0.742855    35A      0.753567  
      36A      0.768143    37A      0.810560    38A      0.831811  
      39A      0.874590    40A      0.948490    41A      0.985497  
      42A      1.039512    43A      1.055112    44A      1.072607  
      45A      1.126159    46A      1.141395    47A      1.148293  
      48A      1.188230    49A      1.200158    50A      1.216618  
      51A      1.223537    52A      1.245968    53A      1.308172  
      54A      1.354746    55A      1.389419    56A      1.600607  
      57A      1.623862    58A      1.641912    59A      1.662302  
      60A      1.720715    61A      1.789505    62A      1.931449  
      63A      2.045094    64A      2.116450    65A      2.140968  
      66A      2.212831    67A      2.215798    68A      2.267381  
      69A      2.347551    70A      2.360970    71A      2.459337  
      72A      2.475419    73A      2.512054    74A      2.553609  
      75A      2.652321    76A      2.698665    77A      2.796363  
      78A      2.805632    79A      2.911376    80A      3.002112  
      81A      3.045448    82A      3.281837    83A      3.377980  
      84A      3.555657    85A      4.353212    86A      4.470280  
      87A      4.647555    88A      4.694425    89A      4.903968  

    Final Occupation by Irrep:
              A 
    DOCC [    20 ]

  Energy converged.

  @DF-RHF Final Energy:  -247.00480926331900

   => Energetics <=

    Nuclear Repulsion Energy =            181.1674463022144153
    One-Electron Energy =                -694.7274747025975330
    Two-Electron Energy =                 266.5552191370648529
    DFT Exchange-Correlation Energy =       0.0000000000000000
    Empirical Dispersion Energy =           0.0000000000000000
    PCM Polarization Energy =               0.0000000000000000
    EFP Energy =                            0.0000000000000000
    Total Energy =                       -247.0048092633182364

    Alert: EFP and PCM quantities not currently incorporated into SCF psivars.

Properties will be evaluated at   0.000000,   0.000000,   0.000000 Bohr
  ==> Properties <==


Properties computed using the SCF density matrix

  Nuclear Dipole Moment: (a.u.)
     X:    -0.1360      Y:    -1.3996      Z:     3.7443

  Electronic Dipole Moment: (a.u.)
     X:     0.2328      Y:     0.7707      Z:    -2.2709

  Dipole Moment: (a.u.)
     X:     0.0968      Y:    -0.6289      Z:     1.4734     Total:     1.6049

  Dipole Moment: (Debye)
     X:     0.2460      Y:    -1.5985      Z:     3.7449     Total:     4.0792


  Saving occupied orbitals to File 180.

*** tstop() called on cx1-3-2-3.cx1.hpc.ic.ac.uk at Tue Jul  5 16:27:55 2016
Module time:
	user time   =       4.12 seconds =       0.07 minutes
	system time =       0.03 seconds =       0.00 minutes
	total time  =          4 seconds =       0.07 minutes
Total time:
	user time   =       4.12 seconds =       0.07 minutes
	system time =       0.03 seconds =       0.00 minutes
	total time  =          4 seconds =       0.07 minutes


Properties will be evaluated at   0.000000,   0.000000,   0.000000 Bohr

Properties computed using the  density matrix

  Nuclear Dipole Moment: (a.u.)
     X:    -0.1360      Y:    -1.3996      Z:     3.7443

  Electronic Dipole Moment: (a.u.)
     X:     0.2328      Y:     0.7707      Z:    -2.2709

  Dipole Moment: (a.u.)
     X:     0.0968      Y:    -0.6289      Z:     1.4734     Total:     1.6049

  Dipole Moment: (Debye)
     X:     0.2460      Y:    -1.5985      Z:     3.7449     Total:     4.0792

  Quadrupole Moment: (Debye Ang)
    XX:   -26.9771     YY:   -31.0288     ZZ:   -32.6192
    XY:    -1.0110     XZ:    -0.8781     YZ:     0.9793

  Traceless Quadrupole Moment: (Debye Ang)
    XX:     3.2313     YY:    -0.8204     ZZ:    -2.4109
    XY:    -1.0110     XZ:    -0.8781     YZ:     0.9793

  Mulliken Charges: (a.u.)
   Center  Symbol    Alpha    Beta     Spin     Total
       1     H     0.30951  0.30951  0.00000  0.38098
       2     N     3.89261  3.89261  0.00000 -0.78521
       3     C     3.13484  3.13484  0.00000 -0.26968
       4     C     2.63153  2.63153  0.00000  0.73694
       5     H     0.40240  0.40240  0.00000  0.19520
       6     H     0.40836  0.40836  0.00000  0.18329
       7     H     0.41635  0.41635  0.00000  0.16730
       8     C     3.29542  3.29542  0.00000 -0.59084
       9     O     4.30071  4.30071  0.00000 -0.60141
      10     H     0.40804  0.40804  0.00000  0.18392
      11     H     0.39199  0.39199  0.00000  0.21602
      12     H     0.40825  0.40825  0.00000  0.18350

   Total alpha = 20.00000, Total beta = 20.00000, Total charge = -0.00000


*** PSI4 exiting successfully. Buy a developer a beer!
