    -----------------------------------------------------------------------
          Psi4: An Open-Source Ab Initio Electronic Structure Package
                              Psi4 (no tag) Driver

                          Git: Rev {detached?}  

    J. M. Turney, A. C. Simmonett, R. M. Parrish, E. G. Hohenstein,
    F. A. Evangelista, J. T. Fermann, B. J. Mintz, L. A. Burns, J. J. Wilke,
    M. L. Abrams, N. J. Russ, M. L. Leininger, C. L. Janssen, E. T. Seidl,
    W. D. Allen, H. F. Schaefer, R. A. King, E. F. Valeev, C. D. Sherrill,
    and T. D. Crawford, WIREs Comput. Mol. Sci. 2, 556-565 (2012)
    (doi: 10.1002/wcms.93)

                         Additional Contributions by
    A. E. DePrince, M. Saitow, U. Bozkaya, A. Yu. Sokolov
    -----------------------------------------------------------------------


    Psi4 started on: Tue Jul  5 16:31:58 2016

    Process ID:  16546
    PSI4DATADIR: /export131/home/mjharvey/miniconda3/share
    Memory level set to 256.000 MB

  ==> Input File <==

--------------------------------------------------------------------------
set {
	reference rhf
	basis 6-31G*
}


set_num_threads( 1 )
memory 2 gb

molecule MOL {
0 1

O	 1.368994	 -2.782646	 0.023900
C	 0.436947	 -2.046071	 0.012866
C	 -1.005392	 -2.472945	 0.014791
O	 0.550821	 -0.724572	 0.000672
H	 -1.507288	 -2.063051	 0.883567
H	 -1.063729	 -3.551057	 0.027555
H	 -1.503089	 -2.084087	 -0.865929
C	 1.863949	 -0.193559	 -0.000319
H	 2.028859	 0.409284	 -0.881648
H	 2.526261	 -1.045082	 -0.000003
H	 2.029520	 0.410555	 0.880008

	symmetry c1
}
set optking {
	frozen_dihedral = ("
		8 4 2 1
	")
}

ee = energy('scf')
oeprop('DIPOLE', 'QUADRUPOLE', 'MULLIKEN_CHARGES')
f=open( 'psi4out.xyz', 'w' )
f.write( "11  " )
f.write( str(ee) + "\n" )
f.write( MOL.save_string_xyz() )
f.close()
--------------------------------------------------------------------------

  Memory set to   2.000 GiB by Python script.

*** tstart() called on cx1-1-4-3.cx1.hpc.ic.ac.uk
*** at Tue Jul  5 16:31:58 2016


         ---------------------------------------------------------
                                   SCF
            by Justin Turney, Rob Parrish, and Andy Simmonett
                              RHF Reference
                        1 Threads,   2000 MiB Core
         ---------------------------------------------------------

  ==> Geometry <==

    Molecular point group: c1
    Full point group: C1

    Geometry (in Angstrom), charge = 0, multiplicity = 1:

       Center              X                  Y                   Z               Mass       
    ------------   -----------------  -----------------  -----------------  -----------------
           O          0.710084949742    -1.153266757077     0.013567651294    15.994914619560
           C         -0.221962050258    -0.416691757077     0.002533651294    12.000000000000
           C         -1.664301050258    -0.843565757077     0.004458651294    12.000000000000
           O         -0.108088050258     0.904807242923    -0.009660348706    15.994914619560
           H         -2.166197050258    -0.433671757077     0.873234651294     1.007825032070
           H         -1.722638050258    -1.921677757077     0.017222651294     1.007825032070
           H         -2.161998050258    -0.454707757077    -0.876261348706     1.007825032070
           C          1.205039949742     1.435820242923    -0.010651348706    12.000000000000
           H          1.369949949742     2.038663242923    -0.891980348706     1.007825032070
           H          1.867351949742     0.584297242923    -0.010335348706     1.007825032070
           H          1.370610949742     2.039934242923     0.869675651294     1.007825032070

  Running in c1 symmetry.

  Rotational constants: A =      0.35183  B =      0.14034  C =      0.10418 [cm^-1]
  Rotational constants: A =  10547.48716  B =   4207.35144  C =   3123.09738 [MHz]
  Nuclear repulsion =  183.588562617404989

  Charge       = 0
  Multiplicity = 1
  Electrons    = 40
  Nalpha       = 20
  Nbeta        = 20

  ==> Algorithm <==

  SCF Algorithm Type is DF.
  DIIS enabled.
  MOM disabled.
  Fractional occupation disabled.
  Guess Type is CORE.
  Energy threshold   = 1.00e-06
  Density threshold  = 1.00e-06
  Integral threshold = 0.00e+00

  ==> Primary Basis <==

  Basis Set: 6-31G*
    Number of shells: 42
    Number of basis function: 87
    Number of Cartesian functions: 87
    Spherical Harmonics?: false
    Max angular momentum: 2

  ==> Pre-Iterations <==

   -------------------------------------------------------
    Irrep   Nso     Nmo     Nalpha   Nbeta   Ndocc  Nsocc
   -------------------------------------------------------
     A         87      87       0       0       0       0
   -------------------------------------------------------
    Total      87      87      20      20      20       0
   -------------------------------------------------------

 OEINTS: Overlap, kinetic, potential, dipole, and quadrupole integrals
         stored in file 35.

  ==> Integral Setup <==

  ==> DFJK: Density-Fitted J/K Matrices <==

    J tasked:                  Yes
    K tasked:                  Yes
    wK tasked:                  No
    OpenMP threads:              1
    Integrals threads:           1
    Memory (MB):              1430
    Algorithm:                Core
    Integral Cache:           NONE
    Schwarz Cutoff:          1E-12
    Fitting Condition:       1E-12

   => Auxiliary Basis Set <=

  Basis Set: 
    Number of shells: 174
    Number of basis function: 555
    Number of Cartesian functions: 555
    Spherical Harmonics?: false
    Max angular momentum: 3

  Minimum eigenvalue in the overlap matrix is 3.9659030962E-03.
  Using Symmetric Orthogonalization.
  SCF Guess: Core (One-Electron) Hamiltonian.

  ==> Iterations <==

                           Total Energy        Delta E     RMS |[F,P]|

   @DF-RHF iter   1:  -212.90479641717985   -2.12905e+02   8.83292e-02 
   @DF-RHF iter   2:  -208.71517845702334    4.18962e+00   6.36354e-02 DIIS
   @DF-RHF iter   3:  -241.71764004757244   -3.30025e+01   6.67920e-02 DIIS
   @DF-RHF iter   4:  -261.52904400078762   -1.98114e+01   3.25039e-02 DIIS
   @DF-RHF iter   5:  -263.52305705657164   -1.99401e+00   2.53436e-02 DIIS
   @DF-RHF iter   6:  -266.59656578049265   -3.07351e+00   7.02466e-03 DIIS
   @DF-RHF iter   7:  -266.81085817835310   -2.14292e-01   1.98428e-03 DIIS
   @DF-RHF iter   8:  -266.82700709640278   -1.61489e-02   1.10462e-03 DIIS
   @DF-RHF iter   9:  -266.83153761243886   -4.53052e-03   3.23314e-04 DIIS
   @DF-RHF iter  10:  -266.83207034548508   -5.32733e-04   9.70856e-05 DIIS
   @DF-RHF iter  11:  -266.83214305916022   -7.27137e-05   4.73356e-05 DIIS
   @DF-RHF iter  12:  -266.83215823773946   -1.51786e-05   1.31818e-05 DIIS
   @DF-RHF iter  13:  -266.83216018022631   -1.94249e-06   3.59036e-06 DIIS
   @DF-RHF iter  14:  -266.83216030059049   -1.20364e-07   1.04532e-06 DIIS
   @DF-RHF iter  15:  -266.83216030988814   -9.29765e-09   2.79529e-07 DIIS

  ==> Post-Iterations <==

    Orbital Energies (a.u.)
    -----------------------

    Doubly Occupied:                                                      

       1A    -20.605412     2A    -20.546866     3A    -11.378926  
       4A    -11.275939     5A    -11.235843     6A     -1.472412  
       7A     -1.365514     8A     -1.036587     9A     -0.950948  
      10A     -0.777359    11A     -0.701814    12A     -0.679406  
      13A     -0.678527    14A     -0.597094    15A     -0.590923  
      16A     -0.562343    17A     -0.529753    18A     -0.513434  
      19A     -0.455329    20A     -0.444340  

    Virtual:                                                              

      21A      0.196784    22A      0.251342    23A      0.268880  
      24A      0.299245    25A      0.318829    26A      0.332365  
      27A      0.335606    28A      0.341783    29A      0.413376  
      30A      0.499383    31A      0.544114    32A      0.695146  
      33A      0.740822    34A      0.753885    35A      0.760525  
      36A      0.800150    37A      0.826234    38A      0.907728  
      39A      0.911292    40A      0.975697    41A      1.033879  
      42A      1.082971    43A      1.112632    44A      1.138213  
      45A      1.147182    46A      1.161799    47A      1.202296  
      48A      1.215361    49A      1.251355    50A      1.265943  
      51A      1.360579    52A      1.366394    53A      1.398107  
      54A      1.462732    55A      1.632441    56A      1.660256  
      57A      1.777590    58A      1.801180    59A      1.853526  
      60A      1.874137    61A      2.003121    62A      2.056795  
      63A      2.095631    64A      2.131826    65A      2.198887  
      66A      2.263555    67A      2.373889    68A      2.401094  
      69A      2.422008    70A      2.525365    71A      2.559064  
      72A      2.571858    73A      2.624580    74A      2.675687  
      75A      2.723730    76A      2.822800    77A      2.944610  
      78A      3.050387    79A      3.137253    80A      3.341206  
      81A      3.401539    82A      3.543991    83A      4.384116  
      84A      4.524576    85A      4.584395    86A      4.698937  
      87A      4.886943  

    Final Occupation by Irrep:
              A 
    DOCC [    20 ]

  Energy converged.

  @DF-RHF Final Energy:  -266.83216030988814

   => Energetics <=

    Nuclear Repulsion Energy =            183.5885626174049889
    One-Electron Energy =                -728.0438449078337726
    Two-Electron Energy =                 277.6231219805412707
    DFT Exchange-Correlation Energy =       0.0000000000000000
    Empirical Dispersion Energy =           0.0000000000000000
    PCM Polarization Energy =               0.0000000000000000
    EFP Energy =                            0.0000000000000000
    Total Energy =                       -266.8321603098875698

    Alert: EFP and PCM quantities not currently incorporated into SCF psivars.

Properties will be evaluated at   0.000000,   0.000000,   0.000000 Bohr
  ==> Properties <==


Properties computed using the SCF density matrix

  Nuclear Dipole Moment: (a.u.)
     X:    -1.3498      Y:     1.7358      Z:    -0.0173

  Electronic Dipole Moment: (a.u.)
     X:     0.9337      Y:    -1.1352      Z:     0.0092

  Dipole Moment: (a.u.)
     X:    -0.4161      Y:     0.6006      Z:    -0.0081     Total:     0.7307

  Dipole Moment: (Debye)
     X:    -1.0575      Y:     1.5265      Z:    -0.0205     Total:     1.8572


  Saving occupied orbitals to File 180.

*** tstop() called on cx1-1-4-3.cx1.hpc.ic.ac.uk at Tue Jul  5 16:32:02 2016
Module time:
	user time   =       3.54 seconds =       0.06 minutes
	system time =       0.05 seconds =       0.00 minutes
	total time  =          4 seconds =       0.07 minutes
Total time:
	user time   =       3.54 seconds =       0.06 minutes
	system time =       0.05 seconds =       0.00 minutes
	total time  =          4 seconds =       0.07 minutes


Properties will be evaluated at   0.000000,   0.000000,   0.000000 Bohr

Properties computed using the  density matrix

  Nuclear Dipole Moment: (a.u.)
     X:    -1.3498      Y:     1.7358      Z:    -0.0173

  Electronic Dipole Moment: (a.u.)
     X:     0.9337      Y:    -1.1352      Z:     0.0092

  Dipole Moment: (a.u.)
     X:    -0.4161      Y:     0.6006      Z:    -0.0081     Total:     0.7307

  Dipole Moment: (Debye)
     X:    -1.0575      Y:     1.5265      Z:    -0.0205     Total:     1.8572

  Quadrupole Moment: (Debye Ang)
    XX:   -27.6478     YY:   -31.5935     ZZ:   -28.9803
    XY:     5.6335     XZ:    -0.0558     YZ:     0.0424

  Traceless Quadrupole Moment: (Debye Ang)
    XX:     1.7594     YY:    -2.1863     ZZ:     0.4269
    XY:     5.6335     XZ:    -0.0558     YZ:     0.0424

  Mulliken Charges: (a.u.)
   Center  Symbol    Alpha    Beta     Spin     Total
       1     O     4.28333  4.28333  0.00000 -0.56667
       2     C     2.62147  2.62147  0.00000  0.75706
       3     C     3.28225  3.28225  0.00000 -0.56450
       4     O     4.29970  4.29970  0.00000 -0.59939
       5     H     0.39931  0.39931  0.00000  0.20138
       6     H     0.39635  0.39635  0.00000  0.20730
       7     H     0.39938  0.39938  0.00000  0.20125
       8     C     3.10482  3.10482  0.00000 -0.20965
       9     H     0.41258  0.41258  0.00000  0.17484
      10     H     0.38817  0.38817  0.00000  0.22365
      11     H     0.41264  0.41264  0.00000  0.17473

   Total alpha = 20.00000, Total beta = 20.00000, Total charge =  0.00000


*** PSI4 exiting successfully. Buy a developer a beer!
