    -----------------------------------------------------------------------
          Psi4: An Open-Source Ab Initio Electronic Structure Package
                              Psi4 (no tag) Driver

                          Git: Rev {detached?}  

    J. M. Turney, A. C. Simmonett, R. M. Parrish, E. G. Hohenstein,
    F. A. Evangelista, J. T. Fermann, B. J. Mintz, L. A. Burns, J. J. Wilke,
    M. L. Abrams, N. J. Russ, M. L. Leininger, C. L. Janssen, E. T. Seidl,
    W. D. Allen, H. F. Schaefer, R. A. King, E. F. Valeev, C. D. Sherrill,
    and T. D. Crawford, WIREs Comput. Mol. Sci. 2, 556-565 (2012)
    (doi: 10.1002/wcms.93)

                         Additional Contributions by
    A. E. DePrince, M. Saitow, U. Bozkaya, A. Yu. Sokolov
    -----------------------------------------------------------------------


    Psi4 started on: Tue Jul  5 16:35:13 2016

    Process ID:  17961
    PSI4DATADIR: /export131/home/mjharvey/miniconda3/share
    Memory level set to 256.000 MB

  ==> Input File <==

--------------------------------------------------------------------------
set {
	reference rhf
	basis 6-31G*
}


set_num_threads( 1 )
memory 2 gb

molecule MOL {
0 1

H	 -2.098997	 -0.674324	 -0.616650
O	 -2.035884	 -0.060112	 0.102722
C	 -0.955155	 0.788182	 -0.092531
C	 0.353668	 0.040312	 -0.004810
H	 -0.985057	 1.290372	 -1.054184
H	 -0.974469	 1.533190	 0.688632
F	 0.284911	 -0.916000	 0.914598
F	 0.636386	 -0.535104	 -1.162466
F	 1.362605	 0.824743	 0.314978

	symmetry c1
}
set optking {
	frozen_dihedral = ("
		1 2 3 5
	")
}

ee = energy('scf')
oeprop('DIPOLE', 'QUADRUPOLE', 'MULLIKEN_CHARGES')
f=open( 'psi4out.xyz', 'w' )
f.write( "9  " )
f.write( str(ee) + "\n" )
f.write( MOL.save_string_xyz() )
f.close()
--------------------------------------------------------------------------

  Memory set to   2.000 GiB by Python script.

*** tstart() called on cx1-3-2-1.cx1.hpc.ic.ac.uk
*** at Tue Jul  5 16:35:14 2016


         ---------------------------------------------------------
                                   SCF
            by Justin Turney, Rob Parrish, and Andy Simmonett
                              RHF Reference
                        1 Threads,   2000 MiB Core
         ---------------------------------------------------------

  ==> Geometry <==

    Molecular point group: c1
    Full point group: C1

    Geometry (in Angstrom), charge = 0, multiplicity = 1:

       Center              X                  Y                   Z               Mass       
    ------------   -----------------  -----------------  -----------------  -----------------
           H         -2.094183407541    -0.666791411455    -0.624249293520     1.007825032070
           O         -2.031070407541    -0.052579411455     0.095122706480    15.994914619560
           C         -0.950341407541     0.795714588545    -0.100130293520    12.000000000000
           C          0.358481592459     0.047844588545    -0.012409293520    12.000000000000
           H         -0.980243407541     1.297904588545    -1.061783293520     1.007825032070
           H         -0.969655407541     1.540722588545     0.681032706480     1.007825032070
           F          0.289724592459    -0.908467411455     0.906998706480    18.998403224000
           F          0.641199592459    -0.527571411455    -1.170065293520    18.998403224000
           F          1.367418592459     0.832275588545     0.307378706480    18.998403224000

  Running in c1 symmetry.

  Rotational constants: A =      0.18330  B =      0.09613  C =      0.09579 [cm^-1]
  Rotational constants: A =   5495.04983  B =   2881.98410  C =   2871.58164 [MHz]
  Nuclear repulsion =  277.314080267257225

  Charge       = 0
  Multiplicity = 1
  Electrons    = 50
  Nalpha       = 25
  Nbeta        = 25

  ==> Algorithm <==

  SCF Algorithm Type is DF.
  DIIS enabled.
  MOM disabled.
  Fractional occupation disabled.
  Guess Type is CORE.
  Energy threshold   = 1.00e-06
  Density threshold  = 1.00e-06
  Integral threshold = 0.00e+00

  ==> Primary Basis <==

  Basis Set: 6-31G*
    Number of shells: 42
    Number of basis function: 96
    Number of Cartesian functions: 96
    Spherical Harmonics?: false
    Max angular momentum: 2

  ==> Pre-Iterations <==

   -------------------------------------------------------
    Irrep   Nso     Nmo     Nalpha   Nbeta   Ndocc  Nsocc
   -------------------------------------------------------
     A         96      96       0       0       0       0
   -------------------------------------------------------
    Total      96      96      25      25      25       0
   -------------------------------------------------------

 OEINTS: Overlap, kinetic, potential, dipole, and quadrupole integrals
         stored in file 35.

  ==> Integral Setup <==

  ==> DFJK: Density-Fitted J/K Matrices <==

    J tasked:                  Yes
    K tasked:                  Yes
    wK tasked:                  No
    OpenMP threads:              1
    Integrals threads:           1
    Memory (MB):              1430
    Algorithm:                Core
    Integral Cache:           NONE
    Schwarz Cutoff:          1E-12
    Fitting Condition:       1E-12

   => Auxiliary Basis Set <=

  Basis Set: 
    Number of shells: 171
    Number of basis function: 561
    Number of Cartesian functions: 561
    Spherical Harmonics?: false
    Max angular momentum: 3

  Minimum eigenvalue in the overlap matrix is 1.8950875593E-03.
  Using Symmetric Orthogonalization.
  SCF Guess: Core (One-Electron) Hamiltonian.

  ==> Iterations <==

                           Total Energy        Delta E     RMS |[F,P]|

   @DF-RHF iter   1:  -399.77728576222484   -3.99777e+02   9.01420e-02 
   @DF-RHF iter   2:  -272.91684301360766    1.26860e+02   9.71359e-02 DIIS
   @DF-RHF iter   3:  -397.17406578174899   -1.24257e+02   6.48727e-02 DIIS
   @DF-RHF iter   4:  -447.80200176459226   -5.06279e+01   2.67624e-02 DIIS
   @DF-RHF iter   5:  -450.32866400510824   -2.52666e+00   9.79411e-03 DIIS
   @DF-RHF iter   6:  -450.57325733485681   -2.44593e-01   4.55558e-03 DIIS
   @DF-RHF iter   7:  -450.64441271499601   -7.11554e-02   1.63178e-03 DIIS
   @DF-RHF iter   8:  -450.65785389362776   -1.34412e-02   4.75840e-04 DIIS
   @DF-RHF iter   9:  -450.65908394275135   -1.23005e-03   1.22087e-04 DIIS
   @DF-RHF iter  10:  -450.65915706893844   -7.31262e-05   4.49366e-05 DIIS
   @DF-RHF iter  11:  -450.65917054736491   -1.34784e-05   1.13649e-05 DIIS
   @DF-RHF iter  12:  -450.65917169942571   -1.15206e-06   3.86874e-06 DIIS
   @DF-RHF iter  13:  -450.65917177827527   -7.88496e-08   1.25641e-06 DIIS
   @DF-RHF iter  14:  -450.65917178603144   -7.75617e-09   2.00882e-07 DIIS

  ==> Post-Iterations <==

    Orbital Energies (a.u.)
    -----------------------

    Doubly Occupied:                                                      

       1A    -26.344911     2A    -26.343886     3A    -26.333131  
       4A    -20.590396     5A    -11.499234     6A    -11.308927  
       7A     -1.739485     8A     -1.641403     9A     -1.631484  
      10A     -1.402454    11A     -1.047791    12A     -0.922890  
      13A     -0.830833    14A     -0.826753    15A     -0.803625  
      16A     -0.728935    17A     -0.711641    18A     -0.695830  
      19A     -0.665274    20A     -0.656376    21A     -0.640855  
      22A     -0.628483    23A     -0.609595    24A     -0.529560  
      25A     -0.481307  

    Virtual:                                                              

      26A      0.211965    27A      0.268674    28A      0.281895  
      29A      0.333630    30A      0.416029    31A      0.435937  
      32A      0.478054    33A      0.487105    34A      0.696271  
      35A      0.743686    36A      0.755520    37A      0.779624  
      38A      0.813293    39A      0.883738    40A      0.936535  
      41A      1.054040    42A      1.129709    43A      1.147537  
      44A      1.194475    45A      1.222450    46A      1.316248  
      47A      1.345620    48A      1.350691    49A      1.356494  
      50A      1.439632    51A      1.461499    52A      1.591744  
      53A      1.621386    54A      1.630867    55A      1.644258  
      56A      1.671482    57A      1.674148    58A      1.706465  
      59A      1.743951    60A      1.878358    61A      1.918140  
      62A      1.951057    63A      1.982983    64A      2.001071  
      65A      2.122274    66A      2.136364    67A      2.143683  
      68A      2.166553    69A      2.259610    70A      2.266774  
      71A      2.314185    72A      2.351717    73A      2.381879  
      74A      2.397740    75A      2.412213    76A      2.419500  
      77A      2.499897    78A      2.602596    79A      2.674588  
      80A      2.689443    81A      2.795657    82A      2.828095  
      83A      2.926380    84A      3.102685    85A      3.143689  
      86A      3.178612    87A      3.253176    88A      3.421636  
      89A      3.424517    90A      3.442076    91A      4.126851  
      92A      4.596099    93A      4.813920    94A      4.907154  
      95A      5.046235    96A      5.721566  

    Final Occupation by Irrep:
              A 
    DOCC [    25 ]

  Energy converged.

  @DF-RHF Final Energy:  -450.65917178603144

   => Energetics <=

    Nuclear Repulsion Energy =            277.3140802672572249
    One-Electron Energy =               -1176.7163938840171795
    Two-Electron Energy =                 448.7431418307285753
    DFT Exchange-Correlation Energy =       0.0000000000000000
    Empirical Dispersion Energy =           0.0000000000000000
    PCM Polarization Energy =               0.0000000000000000
    EFP Energy =                            0.0000000000000000
    Total Energy =                       -450.6591717860314361

    Alert: EFP and PCM quantities not currently incorporated into SCF psivars.

Properties will be evaluated at   0.000000,   0.000000,   0.000000 Bohr
  ==> Properties <==


Properties computed using the SCF density matrix

  Nuclear Dipole Moment: (a.u.)
     X:    -5.9691      Y:     2.6053      Z:    -0.9835

  Electronic Dipole Moment: (a.u.)
     X:     5.6619      Y:    -2.2474      Z:     0.3724

  Dipole Moment: (a.u.)
     X:    -0.3072      Y:     0.3580      Z:    -0.6111     Total:     0.7720

  Dipole Moment: (Debye)
     X:    -0.7809      Y:     0.9098      Z:    -1.5532     Total:     1.9622


  Saving occupied orbitals to File 180.

*** tstop() called on cx1-3-2-1.cx1.hpc.ic.ac.uk at Tue Jul  5 16:35:18 2016
Module time:
	user time   =       3.77 seconds =       0.06 minutes
	system time =       0.03 seconds =       0.00 minutes
	total time  =          4 seconds =       0.07 minutes
Total time:
	user time   =       3.77 seconds =       0.06 minutes
	system time =       0.03 seconds =       0.00 minutes
	total time  =          4 seconds =       0.07 minutes


Properties will be evaluated at   0.000000,   0.000000,   0.000000 Bohr

Properties computed using the  density matrix

  Nuclear Dipole Moment: (a.u.)
     X:    -5.9691      Y:     2.6053      Z:    -0.9835

  Electronic Dipole Moment: (a.u.)
     X:     5.6619      Y:    -2.2474      Z:     0.3724

  Dipole Moment: (a.u.)
     X:    -0.3072      Y:     0.3580      Z:    -0.6111     Total:     0.7720

  Dipole Moment: (Debye)
     X:    -0.7809      Y:     0.9098      Z:    -1.5532     Total:     1.9622

  Quadrupole Moment: (Debye Ang)
    XX:   -35.5881     YY:   -30.6129     ZZ:   -32.1773
    XY:     0.4158     XZ:     3.3577     YZ:     1.1085

  Traceless Quadrupole Moment: (Debye Ang)
    XX:    -2.7953     YY:     2.1798     ZZ:     0.6155
    XY:     0.4158     XZ:     3.3577     YZ:     1.1085

  Mulliken Charges: (a.u.)
   Center  Symbol    Alpha    Beta     Spin     Total
       1     H     0.27411  0.27411  0.00000  0.45179
       2     O     4.35818  4.35818  0.00000 -0.71635
       3     C     3.05668  3.05668  0.00000 -0.11337
       4     C     2.46536  2.46536  0.00000  1.06927
       5     H     0.40885  0.40885  0.00000  0.18229
       6     H     0.39532  0.39532  0.00000  0.20936
       7     F     4.67992  4.67992  0.00000 -0.35984
       8     F     4.68303  4.68303  0.00000 -0.36606
       9     F     4.67854  4.67854  0.00000 -0.35709

   Total alpha = 25.00000, Total beta = 25.00000, Total charge =  0.00000


*** PSI4 exiting successfully. Buy a developer a beer!
