    -----------------------------------------------------------------------
          Psi4: An Open-Source Ab Initio Electronic Structure Package
                              Psi4 (no tag) Driver

                          Git: Rev {detached?}  

    J. M. Turney, A. C. Simmonett, R. M. Parrish, E. G. Hohenstein,
    F. A. Evangelista, J. T. Fermann, B. J. Mintz, L. A. Burns, J. J. Wilke,
    M. L. Abrams, N. J. Russ, M. L. Leininger, C. L. Janssen, E. T. Seidl,
    W. D. Allen, H. F. Schaefer, R. A. King, E. F. Valeev, C. D. Sherrill,
    and T. D. Crawford, WIREs Comput. Mol. Sci. 2, 556-565 (2012)
    (doi: 10.1002/wcms.93)

                         Additional Contributions by
    A. E. DePrince, M. Saitow, U. Bozkaya, A. Yu. Sokolov
    -----------------------------------------------------------------------


    Psi4 started on: Tue Jul  5 16:30:15 2016

    Process ID:   6491
    PSI4DATADIR: /export131/home/mjharvey/miniconda3/share
    Memory level set to 256.000 MB

  ==> Input File <==

--------------------------------------------------------------------------
set {
	reference rhf
	basis 6-31G*
}


set_num_threads( 1 )
memory 2 gb

molecule MOL {
0 1

H	 1.154786	 0.777476	 -1.904145
O	 1.287550	 1.297426	 -1.123198
C	 0.709265	 0.639550	 -0.033818
C	 -0.795902	 0.595680	 -0.067389
H	 1.038371	 1.172688	 0.850861
H	 1.094260	 -0.375886	 0.053901
C	 -1.522220	 -0.487727	 -0.255690
H	 -1.282245	 1.548446	 0.074703
H	 -1.071454	 -1.449856	 -0.418625
H	 -2.596511	 -0.445958	 -0.267127

	symmetry c1
}
set optking {
	frozen_dihedral = ("
		5 3 2 1,
		3 4 7 9
	")
}

ee = energy('scf')
oeprop('DIPOLE', 'QUADRUPOLE', 'MULLIKEN_CHARGES')
f=open( 'psi4out.xyz', 'w' )
f.write( "10  " )
f.write( str(ee) + "\n" )
f.write( MOL.save_string_xyz() )
f.close()
--------------------------------------------------------------------------

  Memory set to   2.000 GiB by Python script.

*** tstart() called on cx1-3-5-2.cx1.hpc.ic.ac.uk
*** at Tue Jul  5 16:30:15 2016


         ---------------------------------------------------------
                                   SCF
            by Justin Turney, Rob Parrish, and Andy Simmonett
                              RHF Reference
                        1 Threads,   2000 MiB Core
         ---------------------------------------------------------

  ==> Geometry <==

    Molecular point group: c1
    Full point group: C1

    Geometry (in Angstrom), charge = 0, multiplicity = 1:

       Center              X                  Y                   Z               Mass       
    ------------   -----------------  -----------------  -----------------  -----------------
           H          1.161468006021     0.244089197119    -1.492868521027     1.007825032070
           O          1.294232006021     0.764039197119    -0.711921521027    15.994914619560
           C          0.715947006021     0.106163197119     0.377458478973    12.000000000000
           C         -0.789219993979     0.062293197119     0.343887478973    12.000000000000
           H          1.045053006021     0.639301197119     1.262137478973     1.007825032070
           H          1.100942006021    -0.909272802881     0.465177478973     1.007825032070
           C         -1.515537993979    -1.021113802881     0.155586478973    12.000000000000
           H         -1.275562993979     1.015059197119     0.485979478973     1.007825032070
           H         -1.064771993979    -1.983242802881    -0.007348521027     1.007825032070
           H         -2.589828993979    -0.979344802881     0.144149478973     1.007825032070

  Running in c1 symmetry.

  Rotational constants: A =      0.83110  B =      0.14626  C =      0.14385 [cm^-1]
  Rotational constants: A =  24915.72421  B =   4384.81844  C =   4312.58342 [MHz]
  Nuclear repulsion =  117.483624556212618

  Charge       = 0
  Multiplicity = 1
  Electrons    = 32
  Nalpha       = 16
  Nbeta        = 16

  ==> Algorithm <==

  SCF Algorithm Type is DF.
  DIIS enabled.
  MOM disabled.
  Fractional occupation disabled.
  Guess Type is CORE.
  Energy threshold   = 1.00e-06
  Density threshold  = 1.00e-06
  Integral threshold = 0.00e+00

  ==> Primary Basis <==

  Basis Set: 6-31G*
    Number of shells: 36
    Number of basis function: 72
    Number of Cartesian functions: 72
    Spherical Harmonics?: false
    Max angular momentum: 2

  ==> Pre-Iterations <==

   -------------------------------------------------------
    Irrep   Nso     Nmo     Nalpha   Nbeta   Ndocc  Nsocc
   -------------------------------------------------------
     A         72      72       0       0       0       0
   -------------------------------------------------------
    Total      72      72      16      16      16       0
   -------------------------------------------------------

 OEINTS: Overlap, kinetic, potential, dipole, and quadrupole integrals
         stored in file 35.

  ==> Integral Setup <==

  ==> DFJK: Density-Fitted J/K Matrices <==

    J tasked:                  Yes
    K tasked:                  Yes
    wK tasked:                  No
    OpenMP threads:              1
    Integrals threads:           1
    Memory (MB):              1430
    Algorithm:                Core
    Integral Cache:           NONE
    Schwarz Cutoff:          1E-12
    Fitting Condition:       1E-12

   => Auxiliary Basis Set <=

  Basis Set: 
    Number of shells: 150
    Number of basis function: 474
    Number of Cartesian functions: 474
    Spherical Harmonics?: false
    Max angular momentum: 3

  Minimum eigenvalue in the overlap matrix is 4.5043491314E-03.
  Using Symmetric Orthogonalization.
  SCF Guess: Core (One-Electron) Hamiltonian.

  ==> Iterations <==

                           Total Energy        Delta E     RMS |[F,P]|

   @DF-RHF iter   1:  -157.88951771551066   -1.57890e+02   9.04418e-02 
   @DF-RHF iter   2:  -117.48215495657837    4.04074e+01   7.61284e-02 DIIS
   @DF-RHF iter   3:  -163.04814276378497   -4.55660e+01   6.75402e-02 DIIS
   @DF-RHF iter   4:  -187.25233256774058   -2.42042e+01   2.79500e-02 DIIS
   @DF-RHF iter   5:  -191.68363559464123   -4.43130e+00   9.47100e-03 DIIS
   @DF-RHF iter   6:  -191.89940539680376   -2.15770e-01   2.49783e-03 DIIS
   @DF-RHF iter   7:  -191.91049479150294   -1.10894e-02   1.31884e-03 DIIS
   @DF-RHF iter   8:  -191.91456276368368   -4.06797e-03   6.94133e-04 DIIS
   @DF-RHF iter   9:  -191.91614153616408   -1.57877e-03   1.76164e-04 DIIS
   @DF-RHF iter  10:  -191.91628666897432   -1.45133e-04   5.99549e-05 DIIS
   @DF-RHF iter  11:  -191.91631234891818   -2.56799e-05   2.79345e-05 DIIS
   @DF-RHF iter  12:  -191.91631608301051   -3.73409e-06   6.61162e-06 DIIS
   @DF-RHF iter  13:  -191.91631630619574   -2.23185e-07   8.34394e-07 DIIS

  ==> Post-Iterations <==

    Orbital Energies (a.u.)
    -----------------------

    Doubly Occupied:                                                      

       1A    -20.558041     2A    -11.276038     3A    -11.231250  
       4A    -11.227936     5A     -1.366474     6A     -1.063565  
       7A     -0.922667     8A     -0.772889     9A     -0.705789  
      10A     -0.626947    11A     -0.617596    12A     -0.600739  
      13A     -0.528083    14A     -0.489328    15A     -0.439853  
      16A     -0.375837  

    Virtual:                                                              

      17A      0.171561    18A      0.240697    19A      0.266343  
      20A      0.282807    21A      0.304070    22A      0.338081  
      23A      0.348295    24A      0.425739    25A      0.467924  
      26A      0.543094    27A      0.699476    28A      0.741061  
      29A      0.773587    30A      0.823591    31A      0.832934  
      32A      0.898197    33A      0.916775    34A      0.982681  
      35A      1.010192    36A      1.080112    37A      1.129377  
      38A      1.152178    39A      1.170682    40A      1.186382  
      41A      1.225418    42A      1.272796    43A      1.286116  
      44A      1.342896    45A      1.417121    46A      1.515470  
      47A      1.589721    48A      1.646170    49A      1.767527  
      50A      1.820016    51A      1.920439    52A      1.962492  
      53A      2.038521    54A      2.174135    55A      2.236158  
      56A      2.274888    57A      2.345271    58A      2.471304  
      59A      2.531463    60A      2.579013    61A      2.633373  
      62A      2.715994    63A      2.815605    64A      2.824237  
      65A      2.951331    66A      3.148822    67A      3.196890  
      68A      3.259699    69A      4.154651    70A      4.540404  
      71A      4.664490    72A      4.854145  

    Final Occupation by Irrep:
              A 
    DOCC [    16 ]

  Energy converged.

  @DF-RHF Final Energy:  -191.91631630619574

   => Energetics <=

    Nuclear Repulsion Energy =            117.4836245562126180
    One-Electron Energy =                -493.1937829238520976
    Two-Electron Energy =                 183.7938420614437405
    DFT Exchange-Correlation Energy =       0.0000000000000000
    Empirical Dispersion Energy =           0.0000000000000000
    PCM Polarization Energy =               0.0000000000000000
    EFP Energy =                            0.0000000000000000
    Total Energy =                       -191.9163163061957107

    Alert: EFP and PCM quantities not currently incorporated into SCF psivars.

Properties will be evaluated at   0.000000,   0.000000,   0.000000 Bohr
  ==> Properties <==


Properties computed using the SCF density matrix

  Nuclear Dipole Moment: (a.u.)
     X:    -1.5150      Y:    -1.8463      Z:     0.8002

  Electronic Dipole Moment: (a.u.)
     X:     1.1631      Y:     1.2579      Z:    -0.8457

  Dipole Moment: (a.u.)
     X:    -0.3519      Y:    -0.5885      Z:    -0.0455     Total:     0.6872

  Dipole Moment: (Debye)
     X:    -0.8945      Y:    -1.4957      Z:    -0.1155     Total:     1.7466


  Saving occupied orbitals to File 180.

*** tstop() called on cx1-3-5-2.cx1.hpc.ic.ac.uk at Tue Jul  5 16:30:19 2016
Module time:
	user time   =       3.31 seconds =       0.06 minutes
	system time =       0.03 seconds =       0.00 minutes
	total time  =          4 seconds =       0.07 minutes
Total time:
	user time   =       3.31 seconds =       0.06 minutes
	system time =       0.03 seconds =       0.00 minutes
	total time  =          4 seconds =       0.07 minutes


Properties will be evaluated at   0.000000,   0.000000,   0.000000 Bohr

Properties computed using the  density matrix

  Nuclear Dipole Moment: (a.u.)
     X:    -1.5150      Y:    -1.8463      Z:     0.8002

  Electronic Dipole Moment: (a.u.)
     X:     1.1631      Y:     1.2579      Z:    -0.8457

  Dipole Moment: (a.u.)
     X:    -0.3519      Y:    -0.5885      Z:    -0.0455     Total:     0.6872

  Dipole Moment: (Debye)
     X:    -0.8945      Y:    -1.4957      Z:    -0.1155     Total:     1.7466

  Quadrupole Moment: (Debye Ang)
    XX:   -26.2743     YY:   -25.6339     ZZ:   -23.7015
    XY:    -2.3576     XZ:     0.1876     YZ:     2.1267

  Traceless Quadrupole Moment: (Debye Ang)
    XX:    -1.0711     YY:    -0.4306     ZZ:     1.5017
    XY:    -2.3576     XZ:     0.1876     YZ:     2.1267

  Mulliken Charges: (a.u.)
   Center  Symbol    Alpha    Beta     Spin     Total
       1     H     0.28158  0.28158  0.00000  0.43684
       2     O     4.36429  4.36429  0.00000 -0.72857
       3     C     3.01202  3.01202  0.00000 -0.02404
       4     C     3.07968  3.07968  0.00000 -0.15935
       5     H     0.41229  0.41229  0.00000  0.17543
       6     H     0.42704  0.42704  0.00000  0.14592
       7     C     3.19683  3.19683  0.00000 -0.39366
       8     H     0.40541  0.40541  0.00000  0.18919
       9     H     0.41279  0.41279  0.00000  0.17443
      10     H     0.40809  0.40809  0.00000  0.18382

   Total alpha = 16.00000, Total beta = 16.00000, Total charge =  0.00000


*** PSI4 exiting successfully. Buy a developer a beer!
