    -----------------------------------------------------------------------
          Psi4: An Open-Source Ab Initio Electronic Structure Package
                              Psi4 (no tag) Driver

                          Git: Rev {detached?}  

    J. M. Turney, A. C. Simmonett, R. M. Parrish, E. G. Hohenstein,
    F. A. Evangelista, J. T. Fermann, B. J. Mintz, L. A. Burns, J. J. Wilke,
    M. L. Abrams, N. J. Russ, M. L. Leininger, C. L. Janssen, E. T. Seidl,
    W. D. Allen, H. F. Schaefer, R. A. King, E. F. Valeev, C. D. Sherrill,
    and T. D. Crawford, WIREs Comput. Mol. Sci. 2, 556-565 (2012)
    (doi: 10.1002/wcms.93)

                         Additional Contributions by
    A. E. DePrince, M. Saitow, U. Bozkaya, A. Yu. Sokolov
    -----------------------------------------------------------------------


    Psi4 started on: Tue Jul  5 16:30:04 2016

    Process ID:  31303
    PSI4DATADIR: /export131/home/mjharvey/miniconda3/share
    Memory level set to 256.000 MB

  ==> Input File <==

--------------------------------------------------------------------------
set {
	reference rhf
	basis 6-31G*
}


set_num_threads( 1 )
memory 2 gb

molecule MOL {
0 1

H	 1.353289	 -2.121022	 0.666049
C	 0.411715	 -1.614290	 0.802858
O	 0.464886	 -0.454746	 -0.000158
H	 0.291466	 -1.358468	 1.848860
H	 -0.394890	 -2.267243	 0.491244
C	 -0.590998	 0.343045	 0.000118
O	 -1.699443	 -0.054298	 0.000227
H	 -0.340329	 1.404368	 0.000207

	symmetry c1
}
ee = energy('scf')
oeprop('DIPOLE', 'QUADRUPOLE', 'MULLIKEN_CHARGES')
f=open( 'psi4out.xyz', 'w' )
f.write( "8  " )
f.write( str(ee) + "\n" )
f.write( MOL.save_string_xyz() )
f.close()
--------------------------------------------------------------------------

  Memory set to   2.000 GiB by Python script.

*** tstart() called on cx1-3-15-4.cx1.hpc.ic.ac.uk
*** at Tue Jul  5 16:30:04 2016


         ---------------------------------------------------------
                                   SCF
            by Justin Turney, Rob Parrish, and Andy Simmonett
                              RHF Reference
                        1 Threads,   2000 MiB Core
         ---------------------------------------------------------

  ==> Geometry <==

    Molecular point group: c1
    Full point group: C1

    Geometry (in Angstrom), charge = 0, multiplicity = 1:

       Center              X                  Y                   Z               Mass       
    ------------   -----------------  -----------------  -----------------  -----------------
           H          1.702855509007    -1.658294961110     0.455011642889     1.007825032070
           C          0.761281509007    -1.151562961110     0.591820642889    12.000000000000
           O          0.814452509007     0.007981038890    -0.211195357111    15.994914619560
           H          0.641032509007    -0.895740961110     1.637822642889     1.007825032070
           H         -0.045323490993    -1.804515961110     0.280206642889     1.007825032070
           C         -0.241431490993     0.805772038890    -0.210919357111    12.000000000000
           O         -1.349876490993     0.408429038890    -0.210810357111    15.994914619560
           H          0.009237509007     1.867095038890    -0.210830357111     1.007825032070

  Running in c1 symmetry.

  Rotational constants: A =      0.73987  B =      0.21993  C =      0.17942 [cm^-1]
  Rotational constants: A =  22180.61300  B =   6593.43877  C =   5378.97140 [MHz]
  Nuclear repulsion =  123.529617563387248

  Charge       = 0
  Multiplicity = 1
  Electrons    = 32
  Nalpha       = 16
  Nbeta        = 16

  ==> Algorithm <==

  SCF Algorithm Type is DF.
  DIIS enabled.
  MOM disabled.
  Fractional occupation disabled.
  Guess Type is CORE.
  Energy threshold   = 1.00e-06
  Density threshold  = 1.00e-06
  Integral threshold = 0.00e+00

  ==> Primary Basis <==

  Basis Set: 6-31G*
    Number of shells: 32
    Number of basis function: 68
    Number of Cartesian functions: 68
    Spherical Harmonics?: false
    Max angular momentum: 2

  ==> Pre-Iterations <==

   -------------------------------------------------------
    Irrep   Nso     Nmo     Nalpha   Nbeta   Ndocc  Nsocc
   -------------------------------------------------------
     A         68      68       0       0       0       0
   -------------------------------------------------------
    Total      68      68      16      16      16       0
   -------------------------------------------------------

 OEINTS: Overlap, kinetic, potential, dipole, and quadrupole integrals
         stored in file 35.

  ==> Integral Setup <==

  ==> DFJK: Density-Fitted J/K Matrices <==

    J tasked:                  Yes
    K tasked:                  Yes
    wK tasked:                  No
    OpenMP threads:              1
    Integrals threads:           1
    Memory (MB):              1430
    Algorithm:                Core
    Integral Cache:           NONE
    Schwarz Cutoff:          1E-12
    Fitting Condition:       1E-12

   => Auxiliary Basis Set <=

  Basis Set: 
    Number of shells: 132
    Number of basis function: 424
    Number of Cartesian functions: 424
    Spherical Harmonics?: false
    Max angular momentum: 3

  Minimum eigenvalue in the overlap matrix is 5.2748259787E-03.
  Using Symmetric Orthogonalization.
  SCF Guess: Core (One-Electron) Hamiltonian.

  ==> Iterations <==

                           Total Energy        Delta E     RMS |[F,P]|

   @DF-RHF iter   1:  -194.68436305514132   -1.94684e+02   8.87142e-02 
   @DF-RHF iter   2:  -161.75062074132603    3.29337e+01   8.09817e-02 DIIS
   @DF-RHF iter   3:  -210.08356903199871   -4.83329e+01   5.61924e-02 DIIS
   @DF-RHF iter   4:  -227.05695082395795   -1.69734e+01   1.86209e-02 DIIS
   @DF-RHF iter   5:  -227.71673229881407   -6.59781e-01   5.95894e-03 DIIS
   @DF-RHF iter   6:  -227.77588965655559   -5.91574e-02   1.05412e-03 DIIS
   @DF-RHF iter   7:  -227.77854244503231   -2.65279e-03   5.23106e-04 DIIS
   @DF-RHF iter   8:  -227.77909647751227   -5.54032e-04   2.10517e-04 DIIS
   @DF-RHF iter   9:  -227.77922191787957   -1.25440e-04   1.21240e-04 DIIS
   @DF-RHF iter  10:  -227.77926522191188   -4.33040e-05   3.47545e-05 DIIS
   @DF-RHF iter  11:  -227.77926951362110   -4.29171e-06   8.06628e-06 DIIS
   @DF-RHF iter  12:  -227.77926976776462   -2.54144e-07   2.69752e-06 DIIS
   @DF-RHF iter  13:  -227.77926979526364   -2.74990e-08   6.19771e-07 DIIS

  ==> Post-Iterations <==

    Orbital Energies (a.u.)
    -----------------------

    Doubly Occupied:                                                      

       1A    -20.605838     2A    -20.562614     3A    -11.381376  
       4A    -11.291035     5A     -1.477962     6A     -1.376994  
       7A     -0.993050     8A     -0.822016     9A     -0.744079  
      10A     -0.682176    11A     -0.674638    12A     -0.611387  
      13A     -0.558405    14A     -0.522270    15A     -0.465648  
      16A     -0.455296  

    Virtual:                                                              

      17A      0.176595    18A      0.256505    19A      0.273923  
      20A      0.308983    21A      0.321248    22A      0.333073  
      23A      0.442979    24A      0.514524    25A      0.705573  
      26A      0.734626    27A      0.763644    28A      0.779251  
      29A      0.853373    30A      0.956636    31A      0.992022  
      32A      1.078869    33A      1.094324    34A      1.119993  
      35A      1.127626    36A      1.196781    37A      1.206301  
      38A      1.271806    39A      1.303637    40A      1.354312  
      41A      1.434609    42A      1.479783    43A      1.655749  
      44A      1.683674    45A      1.728856    46A      1.814158  
      47A      1.891994    48A      1.997544    49A      2.066479  
      50A      2.147567    51A      2.212227    52A      2.348677  
      53A      2.391745    54A      2.407110    55A      2.526644  
      56A      2.586374    57A      2.638452    58A      2.815385  
      59A      2.835368    60A      2.940830    61A      3.086783  
      62A      3.277800    63A      3.318032    64A      3.447278  
      65A      4.256557    66A      4.357089    67A      4.567330  
      68A      4.685488  

    Final Occupation by Irrep:
              A 
    DOCC [    16 ]

  Energy converged.

  @DF-RHF Final Energy:  -227.77926979526364

   => Energetics <=

    Nuclear Repulsion Energy =            123.5296175633872480
    One-Electron Energy =                -556.1681903943419911
    Two-Electron Energy =                 204.8593030356911413
    DFT Exchange-Correlation Energy =       0.0000000000000000
    Empirical Dispersion Energy =           0.0000000000000000
    PCM Polarization Energy =               0.0000000000000000
    EFP Energy =                            0.0000000000000000
    Total Energy =                       -227.7792697952635876

    Alert: EFP and PCM quantities not currently incorporated into SCF psivars.

Properties will be evaluated at   0.000000,   0.000000,   0.000000 Bohr
  ==> Properties <==


Properties computed using the SCF density matrix

  Nuclear Dipole Moment: (a.u.)
     X:     2.1609      Y:    -2.3337      Z:     2.0250

  Electronic Dipole Moment: (a.u.)
     X:    -1.3919      Y:     2.2769      Z:    -1.5799

  Dipole Moment: (a.u.)
     X:     0.7690      Y:    -0.0568      Z:     0.4451     Total:     0.8903

  Dipole Moment: (Debye)
     X:     1.9547      Y:    -0.1444      Z:     1.1312     Total:     2.2630


  Saving occupied orbitals to File 180.

*** tstop() called on cx1-3-15-4.cx1.hpc.ic.ac.uk at Tue Jul  5 16:30:07 2016
Module time:
	user time   =       2.13 seconds =       0.04 minutes
	system time =       0.03 seconds =       0.00 minutes
	total time  =          3 seconds =       0.05 minutes
Total time:
	user time   =       2.13 seconds =       0.04 minutes
	system time =       0.03 seconds =       0.00 minutes
	total time  =          3 seconds =       0.05 minutes


Properties will be evaluated at   0.000000,   0.000000,   0.000000 Bohr

Properties computed using the  density matrix

  Nuclear Dipole Moment: (a.u.)
     X:     2.1609      Y:    -2.3337      Z:     2.0250

  Electronic Dipole Moment: (a.u.)
     X:    -1.3919      Y:     2.2769      Z:    -1.5799

  Dipole Moment: (a.u.)
     X:     0.7690      Y:    -0.0568      Z:     0.4451     Total:     0.8903

  Dipole Moment: (Debye)
     X:     1.9547      Y:    -0.1444      Z:     1.1312     Total:     2.2630

  Quadrupole Moment: (Debye Ang)
    XX:   -28.4406     YY:   -18.8612     ZZ:   -22.5038
    XY:    -0.5087     XZ:     0.5657     YZ:    -1.1285

  Traceless Quadrupole Moment: (Debye Ang)
    XX:    -5.1721     YY:     4.4073     ZZ:     0.7647
    XY:    -0.5087     XZ:     0.5657     YZ:    -1.1285

  Mulliken Charges: (a.u.)
   Center  Symbol    Alpha    Beta     Spin     Total
       1     H     0.40515  0.40515  0.00000  0.18970
       2     C     3.09480  3.09480  0.00000 -0.18960
       3     O     4.28937  4.28937  0.00000 -0.57874
       4     H     0.41495  0.41495  0.00000  0.17011
       5     H     0.40285  0.40285  0.00000  0.19430
       6     C     2.73267  2.73267  0.00000  0.53467
       7     O     4.24772  4.24772  0.00000 -0.49544
       8     H     0.41250  0.41250  0.00000  0.17500

   Total alpha = 16.00000, Total beta = 16.00000, Total charge = -0.00000


*** PSI4 exiting successfully. Buy a developer a beer!
