    -----------------------------------------------------------------------
          Psi4: An Open-Source Ab Initio Electronic Structure Package
                              Psi4 (no tag) Driver

                          Git: Rev {detached?}  

    J. M. Turney, A. C. Simmonett, R. M. Parrish, E. G. Hohenstein,
    F. A. Evangelista, J. T. Fermann, B. J. Mintz, L. A. Burns, J. J. Wilke,
    M. L. Abrams, N. J. Russ, M. L. Leininger, C. L. Janssen, E. T. Seidl,
    W. D. Allen, H. F. Schaefer, R. A. King, E. F. Valeev, C. D. Sherrill,
    and T. D. Crawford, WIREs Comput. Mol. Sci. 2, 556-565 (2012)
    (doi: 10.1002/wcms.93)

                         Additional Contributions by
    A. E. DePrince, M. Saitow, U. Bozkaya, A. Yu. Sokolov
    -----------------------------------------------------------------------


    Psi4 started on: Tue Jul  5 16:35:53 2016

    Process ID:  13114
    PSI4DATADIR: /export131/home/mjharvey/miniconda3/share
    Memory level set to 256.000 MB

  ==> Input File <==

--------------------------------------------------------------------------
set {
	reference rhf
	basis 6-31G*
}


set_num_threads( 1 )
memory 2 gb

molecule MOL {
0 1

H	 2.332609	 0.878551	 -1.051851
C	 2.357710	 0.000000	 -0.417167
C	 1.175432	 0.000000	 0.532082
H	 3.291263	 0.000000	 0.136880
H	 2.332609	 -0.878551	 -1.051851
O	 0.000000	 0.000000	 -0.221444
H	 1.206604	 0.877321	 1.177902
H	 1.206604	 -0.877321	 1.177902
C	 -1.175432	 0.000000	 0.532082
C	 -1.460554	 1.419454	 0.982314
H	 -1.067863	 -0.657809	 1.394325
H	 -2.003130	 -0.382919	 -0.064606
H	 -0.642079	 1.796158	 1.585222
H	 -2.370764	 1.456388	 1.572775
H	 -1.578657	 2.071433	 0.124246

	symmetry c1
}
ee = energy('scf')
oeprop('DIPOLE', 'QUADRUPOLE', 'MULLIKEN_CHARGES')
f=open( 'psi4out.xyz', 'w' )
f.write( "15  " )
f.write( str(ee) + "\n" )
f.write( MOL.save_string_xyz() )
f.close()
--------------------------------------------------------------------------

  Memory set to   2.000 GiB by Python script.

*** tstart() called on cx1-3-15-4.cx1.hpc.ic.ac.uk
*** at Tue Jul  5 16:35:53 2016


         ---------------------------------------------------------
                                   SCF
            by Justin Turney, Rob Parrish, and Andy Simmonett
                              RHF Reference
                        1 Threads,   2000 MiB Core
         ---------------------------------------------------------

  ==> Geometry <==

    Molecular point group: c1
    Full point group: C1

    Geometry (in Angstrom), charge = 0, multiplicity = 1:

       Center              X                  Y                   Z               Mass       
    ------------   -----------------  -----------------  -----------------  -----------------
           H          2.150434363525     0.590319552165    -1.336027201883     1.007825032070
           C          2.175535363525    -0.288231447835    -0.701343201883    12.000000000000
           C          0.993257363525    -0.288231447835     0.247905798117    12.000000000000
           H          3.109088363525    -0.288231447835    -0.147296201883     1.007825032070
           H          2.150434363525    -1.166782447835    -1.336027201883     1.007825032070
           O         -0.182174636475    -0.288231447835    -0.505620201883    15.994914619560
           H          1.024429363525     0.589089552165     0.893725798117     1.007825032070
           H          1.024429363525    -1.165552447835     0.893725798117     1.007825032070
           C         -1.357606636475    -0.288231447835     0.247905798117    12.000000000000
           C         -1.642728636475     1.131222552165     0.698137798117    12.000000000000
           H         -1.250037636475    -0.946040447835     1.110148798117     1.007825032070
           H         -2.185304636475    -0.671150447835    -0.348782201883     1.007825032070
           H         -0.824253636475     1.507926552165     1.301045798117     1.007825032070
           H         -2.552938636475     1.168156552165     1.288598798117     1.007825032070
           H         -1.760831636475     1.783201552165    -0.159930201883     1.007825032070

  Running in c1 symmetry.

  Rotational constants: A =      0.44676  B =      0.08615  C =      0.08132 [cm^-1]
  Rotational constants: A =  13393.67154  B =   2582.78899  C =   2437.88978 [MHz]
  Nuclear repulsion =  193.965135662832409

  Charge       = 0
  Multiplicity = 1
  Electrons    = 42
  Nalpha       = 21
  Nbeta        = 21

  ==> Algorithm <==

  SCF Algorithm Type is DF.
  DIIS enabled.
  MOM disabled.
  Fractional occupation disabled.
  Guess Type is CORE.
  Energy threshold   = 1.00e-06
  Density threshold  = 1.00e-06
  Integral threshold = 0.00e+00

  ==> Primary Basis <==

  Basis Set: 6-31G*
    Number of shells: 50
    Number of basis function: 95
    Number of Cartesian functions: 95
    Spherical Harmonics?: false
    Max angular momentum: 2

  ==> Pre-Iterations <==

   -------------------------------------------------------
    Irrep   Nso     Nmo     Nalpha   Nbeta   Ndocc  Nsocc
   -------------------------------------------------------
     A         95      95       0       0       0       0
   -------------------------------------------------------
    Total      95      95      21      21      21       0
   -------------------------------------------------------

 OEINTS: Overlap, kinetic, potential, dipole, and quadrupole integrals
         stored in file 35.

  ==> Integral Setup <==

  ==> DFJK: Density-Fitted J/K Matrices <==

    J tasked:                  Yes
    K tasked:                  Yes
    wK tasked:                  No
    OpenMP threads:              1
    Integrals threads:           1
    Memory (MB):              1430
    Algorithm:                Core
    Integral Cache:           NONE
    Schwarz Cutoff:          1E-12
    Fitting Condition:       1E-12

   => Auxiliary Basis Set <=

  Basis Set: 
    Number of shells: 210
    Number of basis function: 655
    Number of Cartesian functions: 655
    Spherical Harmonics?: false
    Max angular momentum: 3

  Minimum eigenvalue in the overlap matrix is 4.7865858718E-03.
  Using Symmetric Orthogonalization.
  SCF Guess: Core (One-Electron) Hamiltonian.

  ==> Iterations <==

                           Total Energy        Delta E     RMS |[F,P]|

   @DF-RHF iter   1:  -169.31020971329136   -1.69310e+02   8.57335e-02 
   @DF-RHF iter   2:  -169.66929847450646   -3.59089e-01   5.96615e-02 DIIS
   @DF-RHF iter   3:  -199.77396183214390   -3.01047e+01   6.21484e-02 DIIS
   @DF-RHF iter   4:  -227.42932951817451   -2.76554e+01   2.76776e-02 DIIS
   @DF-RHF iter   5:  -231.61063410088056   -4.18130e+00   1.03536e-02 DIIS
   @DF-RHF iter   6:  -232.08595231390237   -4.75318e-01   3.05673e-03 DIIS
   @DF-RHF iter   7:  -232.13604810240022   -5.00958e-02   7.13823e-04 DIIS
   @DF-RHF iter   8:  -232.13953043966697   -3.48234e-03   2.40126e-04 DIIS
   @DF-RHF iter   9:  -232.13986497883505   -3.34539e-04   7.04802e-05 DIIS
   @DF-RHF iter  10:  -232.13989889269661   -3.39139e-05   2.47593e-05 DIIS
   @DF-RHF iter  11:  -232.13990320486047   -4.31216e-06   6.05012e-06 DIIS
   @DF-RHF iter  12:  -232.13990346886274   -2.64002e-07   1.74847e-06 DIIS
   @DF-RHF iter  13:  -232.13990349047711   -2.16144e-08   4.28634e-07 DIIS

  ==> Post-Iterations <==

    Orbital Energies (a.u.)
    -----------------------

    Doubly Occupied:                                                      

       1A    -20.549986     2A    -11.268506     3A    -11.268418  
       4A    -11.208952     5A    -11.207888     6A     -1.378359  
       7A     -1.040842     8A     -0.985946     9A     -0.860747  
      10A     -0.815041    11A     -0.675578    12A     -0.647463  
      13A     -0.645827    14A     -0.574176    15A     -0.548645  
      16A     -0.543670    17A     -0.522433    18A     -0.505635  
      19A     -0.487143    20A     -0.457934    21A     -0.406443  

    Virtual:                                                              

      22A      0.237065    23A      0.261743    24A      0.279328  
      25A      0.291698    26A      0.318096    27A      0.322120  
      28A      0.326788    29A      0.340794    30A      0.347122  
      31A      0.361061    32A      0.394646    33A      0.418641  
      34A      0.433448    35A      0.457026    36A      0.701698  
      37A      0.735787    38A      0.754392    39A      0.764122  
      40A      0.779687    41A      0.796756    42A      0.844242  
      43A      0.874979    44A      0.923658    45A      0.950979  
      46A      0.976021    47A      1.061328    48A      1.101715  
      49A      1.129688    50A      1.142826    51A      1.169359  
      52A      1.180088    53A      1.192582    54A      1.197202  
      55A      1.216836    56A      1.232389    57A      1.253270  
      58A      1.278866    59A      1.324855    60A      1.415508  
      61A      1.432847    62A      1.589953    63A      1.629513  
      64A      1.699782    65A      1.741851    66A      1.752811  
      67A      1.869763    68A      1.990804    69A      2.012518  
      70A      2.120436    71A      2.202787    72A      2.232869  
      73A      2.271446    74A      2.279625    75A      2.327462  
      76A      2.436033    77A      2.462539    78A      2.516082  
      79A      2.565644    80A      2.583818    81A      2.651953  
      82A      2.655702    83A      2.691038    84A      2.780914  
      85A      2.798606    86A      2.871118    87A      2.998244  
      88A      3.049921    89A      3.197461    90A      3.348996  
      91A      4.391971    92A      4.619975    93A      4.628262  
      94A      4.813838    95A      4.896370  

    Final Occupation by Irrep:
              A 
    DOCC [    21 ]

  Energy converged.

  @DF-RHF Final Energy:  -232.13990349047711

   => Energetics <=

    Nuclear Repulsion Energy =            193.9651356628324095
    One-Electron Energy =                -699.0107091330180538
    Two-Electron Energy =                 272.9056699797077385
    DFT Exchange-Correlation Energy =       0.0000000000000000
    Empirical Dispersion Energy =           0.0000000000000000
    PCM Polarization Energy =               0.0000000000000000
    EFP Energy =                            0.0000000000000000
    Total Energy =                       -232.1399034904779342

    Alert: EFP and PCM quantities not currently incorporated into SCF psivars.

Properties will be evaluated at   0.000000,   0.000000,   0.000000 Bohr
  ==> Properties <==


Properties computed using the SCF density matrix

  Nuclear Dipole Moment: (a.u.)
     X:     0.8292      Y:     1.3120      Z:     2.0217

  Electronic Dipole Moment: (a.u.)
     X:    -0.8224      Y:    -1.3032      Z:    -1.4988

  Dipole Moment: (a.u.)
     X:     0.0068      Y:     0.0087      Z:     0.5229     Total:     0.5230

  Dipole Moment: (Debye)
     X:     0.0173      Y:     0.0222      Z:     1.3291     Total:     1.3294


  Saving occupied orbitals to File 180.

*** tstop() called on cx1-3-15-4.cx1.hpc.ic.ac.uk at Tue Jul  5 16:35:58 2016
Module time:
	user time   =       5.03 seconds =       0.08 minutes
	system time =       0.04 seconds =       0.00 minutes
	total time  =          5 seconds =       0.08 minutes
Total time:
	user time   =       5.03 seconds =       0.08 minutes
	system time =       0.04 seconds =       0.00 minutes
	total time  =          5 seconds =       0.08 minutes


Properties will be evaluated at   0.000000,   0.000000,   0.000000 Bohr

Properties computed using the  density matrix

  Nuclear Dipole Moment: (a.u.)
     X:     0.8292      Y:     1.3120      Z:     2.0217

  Electronic Dipole Moment: (a.u.)
     X:    -0.8224      Y:    -1.3032      Z:    -1.4988

  Dipole Moment: (a.u.)
     X:     0.0068      Y:     0.0087      Z:     0.5229     Total:     0.5230

  Dipole Moment: (Debye)
     X:     0.0173      Y:     0.0222      Z:     1.3291     Total:     1.3294

  Quadrupole Moment: (Debye Ang)
    XX:   -30.5726     YY:   -33.4411     ZZ:   -34.1972
    XY:     0.1867     XZ:    -0.0711     YZ:    -0.6106

  Traceless Quadrupole Moment: (Debye Ang)
    XX:     2.1644     YY:    -0.7041     ZZ:    -1.4603
    XY:     0.1867     XZ:    -0.0711     YZ:    -0.6106

  Mulliken Charges: (a.u.)
   Center  Symbol    Alpha    Beta     Spin     Total
       1     H     0.41347  0.41347  0.00000  0.17305
       2     C     3.24328  3.24328  0.00000 -0.48656
       3     C     2.99080  2.99080  0.00000  0.01840
       4     H     0.42267  0.42267  0.00000  0.15467
       5     H     0.41315  0.41315  0.00000  0.17371
       6     O     4.30749  4.30749  0.00000 -0.61498
       7     H     0.43218  0.43218  0.00000  0.13564
       8     H     0.43127  0.43127  0.00000  0.13746
       9     C     2.99664  2.99664  0.00000  0.00672
      10     C     3.24659  3.24659  0.00000 -0.49318
      11     H     0.43143  0.43143  0.00000  0.13713
      12     H     0.41486  0.41486  0.00000  0.17028
      13     H     0.41927  0.41927  0.00000  0.16145
      14     H     0.42394  0.42394  0.00000  0.15212
      15     H     0.41296  0.41296  0.00000  0.17409

   Total alpha = 21.00000, Total beta = 21.00000, Total charge = -0.00000


*** PSI4 exiting successfully. Buy a developer a beer!
