    -----------------------------------------------------------------------
          Psi4: An Open-Source Ab Initio Electronic Structure Package
                              Psi4 (no tag) Driver

                          Git: Rev {detached?}  

    J. M. Turney, A. C. Simmonett, R. M. Parrish, E. G. Hohenstein,
    F. A. Evangelista, J. T. Fermann, B. J. Mintz, L. A. Burns, J. J. Wilke,
    M. L. Abrams, N. J. Russ, M. L. Leininger, C. L. Janssen, E. T. Seidl,
    W. D. Allen, H. F. Schaefer, R. A. King, E. F. Valeev, C. D. Sherrill,
    and T. D. Crawford, WIREs Comput. Mol. Sci. 2, 556-565 (2012)
    (doi: 10.1002/wcms.93)

                         Additional Contributions by
    A. E. DePrince, M. Saitow, U. Bozkaya, A. Yu. Sokolov
    -----------------------------------------------------------------------


    Psi4 started on: Tue Jul  5 18:35:36 2016

    Process ID:  31999
    PSI4DATADIR: /export131/home/mjharvey/miniconda3/share
    Memory level set to 256.000 MB

  ==> Input File <==

--------------------------------------------------------------------------
set {
	reference rhf
	basis 6-31G*
}


set_num_threads( 1 )
memory 2 gb

molecule MOL {
0 1

O	 3.282449	 1.253911	 0.178939
C	 2.735283	 0.222379	 0.401676
C	 1.245376	 -0.013843	 0.345420
O	 3.384152	 -0.885448	 0.738302
C	 0.455112	 1.231400	 -0.050772
H	 1.079343	 -0.836788	 -0.341885
H	 0.938761	 -0.377113	 1.323029
C	 -0.998893	 1.219485	 0.433193
H	 0.482531	 1.345121	 -1.130325
H	 0.957290	 2.103070	 0.354729
C	 -1.883438	 0.145884	 -0.207175
H	 -1.431207	 2.195402	 0.224832
H	 -1.019646	 1.105716	 1.516076
C	 -1.236535	 -1.240640	 -0.198954
H	 -2.833649	 0.102377	 0.322943
H	 -2.118527	 0.417480	 -1.233792
C	 -0.020065	 -1.347398	 -1.120331
H	 -1.975420	 -1.984108	 -0.493128
H	 -0.939381	 -1.493338	 0.817680
C	 0.966107	 -0.193248	 -0.943964
H	 0.490757	 -2.289749	 -0.934115
H	 -0.353923	 -1.381133	 -2.155309
H	 1.816977	 -0.297053	 -1.610185
H	 1.345510	 -0.153780	 0.073234
H	 0.494066	 0.761820	 -1.156791
C	 4.794658	 -0.801410	 0.829385
H	 5.220681	 -0.516814	 -0.121938
H	 5.131561	 -1.787179	 1.110031
H	 5.084849	 -0.079076	 1.578757

	symmetry c1
}
set optking {
	frozen_dihedral = ("
		21 17 14 11,
		17 14 11 15,
		15 11 8 5,
		11 8 5 9,
		2 4 26 27,
		1 2 4 26,
		6 3 2 1
	")
}

ee = energy('scf')
oeprop('DIPOLE', 'QUADRUPOLE', 'MULLIKEN_CHARGES')
f=open( 'psi4out.xyz', 'w' )
f.write( "29  " )
f.write( str(ee) + "\n" )
f.write( MOL.save_string_xyz() )
f.close()
--------------------------------------------------------------------------

  Memory set to   2.000 GiB by Python script.

*** tstart() called on cx1-3-14-1.cx1.hpc.ic.ac.uk
*** at Tue Jul  5 18:35:37 2016


         ---------------------------------------------------------
                                   SCF
            by Justin Turney, Rob Parrish, and Andy Simmonett
                              RHF Reference
                        1 Threads,   2000 MiB Core
         ---------------------------------------------------------

  ==> Geometry <==

    Molecular point group: c1
    Full point group: C1

    Geometry (in Angstrom), charge = 0, multiplicity = 1:

       Center              X                  Y                   Z               Mass       
    ------------   -----------------  -----------------  -----------------  -----------------
           O          2.069589185884     1.295807171846     0.136807732366    15.994914619560
           C          1.522423185884     0.264275171846     0.359544732366    12.000000000000
           C          0.032516185884     0.028053171846     0.303288732366    12.000000000000
           O          2.171292185884    -0.843551828154     0.696170732366    15.994914619560
           C         -0.757747814116     1.273296171846    -0.092903267634    12.000000000000
           H         -0.133516814116    -0.794891828154    -0.384016267634     1.007825032070
           H         -0.274098814116    -0.335216828154     1.280897732366     1.007825032070
           C         -2.211752814116     1.261381171846     0.391061732366    12.000000000000
           H         -0.730328814116     1.387017171846    -1.172456267634     1.007825032070
           H         -0.255569814116     2.144966171846     0.312597732366     1.007825032070
           C         -3.096297814116     0.187780171846    -0.249306267634    12.000000000000
           H         -2.644066814116     2.237298171846     0.182700732366     1.007825032070
           H         -2.232505814116     1.147612171846     1.473944732366     1.007825032070
           C         -2.449394814116    -1.198743828154    -0.241085267634    12.000000000000
           H         -4.046508814116     0.144273171846     0.280811732366     1.007825032070
           H         -3.331386814116     0.459376171846    -1.275923267634     1.007825032070
           C         -1.232924814116    -1.305501828154    -1.162462267634    12.000000000000
           H         -3.188279814116    -1.942211828154    -0.535259267634     1.007825032070
           H         -2.152240814116    -1.451441828154     0.775548732366     1.007825032070
           C         -0.246752814116    -0.151351828154    -0.986095267634    12.000000000000
           H         -0.722102814116    -2.247852828154    -0.976246267634     1.007825032070
           H         -1.566782814116    -1.339236828154    -2.197440267634     1.007825032070
           H          0.604117185884    -0.255156828154    -1.652316267634     1.007825032070
           H          0.132650185884    -0.111883828154     0.031102732366     1.007825032070
           H         -0.718793814116     0.803716171846    -1.198922267634     1.007825032070
           C          3.581798185884    -0.759513828154     0.787253732366    12.000000000000
           H          4.007821185884    -0.474917828154    -0.164069267634     1.007825032070
           H          3.918701185884    -1.745282828154     1.067899732366     1.007825032070
           H          3.871989185884    -0.037179828154     1.536625732366     1.007825032070

  Running in c1 symmetry.

  Rotational constants: A =      0.08187  B =      0.02187  C =      0.01916 [cm^-1]
  Rotational constants: A =   2454.44087  B =    655.74582  C =    574.42478 [MHz]
  Nuclear repulsion =  735.731463553064259

  Charge       = 0
  Multiplicity = 1
  Electrons    = 88
  Nalpha       = 44
  Nbeta        = 44

  ==> Algorithm <==

  SCF Algorithm Type is DF.
  DIIS enabled.
  MOM disabled.
  Fractional occupation disabled.
  Guess Type is CORE.
  Energy threshold   = 1.00e-06
  Density threshold  = 1.00e-06
  Integral threshold = 0.00e+00

  ==> Primary Basis <==

  Basis Set: 6-31G*
    Number of shells: 102
    Number of basis function: 201
    Number of Cartesian functions: 201
    Spherical Harmonics?: false
    Max angular momentum: 2

  ==> Pre-Iterations <==

   -------------------------------------------------------
    Irrep   Nso     Nmo     Nalpha   Nbeta   Ndocc  Nsocc
   -------------------------------------------------------
     A        201     201       0       0       0       0
   -------------------------------------------------------
    Total     201     201      44      44      44       0
   -------------------------------------------------------

 OEINTS: Overlap, kinetic, potential, dipole, and quadrupole integrals
         stored in file 35.

  ==> Integral Setup <==

  ==> DFJK: Density-Fitted J/K Matrices <==

    J tasked:                  Yes
    K tasked:                  Yes
    wK tasked:                  No
    OpenMP threads:              1
    Integrals threads:           1
    Memory (MB):              1430
    Algorithm:                Core
    Integral Cache:           NONE
    Schwarz Cutoff:          1E-12
    Fitting Condition:       1E-12

   => Auxiliary Basis Set <=

  Basis Set: 
    Number of shells: 426
    Number of basis function: 1341
    Number of Cartesian functions: 1341
    Spherical Harmonics?: false
    Max angular momentum: 3

  Minimum eigenvalue in the overlap matrix is 3.6261415662E-05.
  Using Symmetric Orthogonalization.
  SCF Guess: Core (One-Electron) Hamiltonian.

  ==> Iterations <==

                           Total Energy        Delta E     RMS |[F,P]|

   @DF-RHF iter   1:  -302.40498738434485   -3.02405e+02   7.30412e-02 
   @DF-RHF iter   2:  -150.88141359186875    1.51524e+02   6.89409e-02 DIIS
   @DF-RHF iter   3:  -321.90741172283083   -1.71026e+02   6.49295e-02 DIIS
   @DF-RHF iter   4:  -371.37729660510922   -4.94699e+01   5.56608e-02 DIIS
   @DF-RHF iter   5:  -405.45819342163941   -3.40809e+01   5.16770e-02 DIIS
   @DF-RHF iter   6:  -494.20099144607480   -8.87428e+01   1.11000e-02 DIIS
   @DF-RHF iter   7:  -496.00356241679583   -1.80257e+00   4.75350e-03 DIIS
   @DF-RHF iter   8:  -496.51541047601859   -5.11848e-01   1.12503e-03 DIIS
   @DF-RHF iter   9:  -496.56754567071744   -5.21352e-02   5.27258e-04 DIIS
   @DF-RHF iter  10:  -496.58026586475876   -1.27202e-02   3.98804e-04 DIIS
   @DF-RHF iter  11:  -496.58871727932410   -8.45141e-03   3.05713e-04 DIIS
   @DF-RHF iter  12:  -496.59840984905759   -9.69257e-03   2.13210e-04 DIIS
   @DF-RHF iter  13:  -496.60542817702753   -7.01833e-03   1.44446e-04 DIIS
   @DF-RHF iter  14:  -496.60974107136622   -4.31289e-03   1.15230e-04 DIIS
   @DF-RHF iter  15:  -496.61366803269811   -3.92696e-03   9.08090e-05 DIIS
   @DF-RHF iter  16:  -496.61844065551099   -4.77262e-03   8.66998e-05 DIIS
   @DF-RHF iter  17:  -496.62207021397512   -3.62956e-03   6.93030e-05 DIIS
   @DF-RHF iter  18:  -496.62294573298300   -8.75519e-04   5.70027e-05 DIIS
   @DF-RHF iter  19:  -496.62552144022084   -2.57571e-03   6.75705e-05 DIIS
   @DF-RHF iter  20:  -496.62561098036167   -8.95401e-05   3.19072e-05 DIIS
   @DF-RHF iter  21:  -496.62599769577309   -3.86715e-04   3.31040e-05 DIIS
   @DF-RHF iter  22:  -496.62610321488546   -1.05519e-04   2.97679e-05 DIIS
   @DF-RHF iter  23:  -496.62614701083294   -4.37959e-05   1.40893e-05 DIIS
   @DF-RHF iter  24:  -496.62621191235098   -6.49015e-05   7.49856e-06 DIIS
   @DF-RHF iter  25:  -496.62624508151771   -3.31692e-05   4.01038e-06 DIIS
   @DF-RHF iter  26:  -496.62625034196208   -5.26044e-06   4.18564e-06 DIIS
   @DF-RHF iter  27:  -496.62625311420425   -2.77224e-06   1.99479e-06 DIIS
   @DF-RHF iter  28:  -496.62625355747900   -4.43275e-07   1.57746e-06 DIIS
   @DF-RHF iter  29:  -496.62625369663215   -1.39153e-07   5.92433e-07 DIIS

  ==> Post-Iterations <==

    Orbital Energies (a.u.)
    -----------------------

    Doubly Occupied:                                                      

       1A    -20.619809     2A    -20.545479     3A    -11.726027  
       4A    -11.394559     5A    -11.291560     6A    -11.287666  
       7A    -11.263378     8A    -11.229737     9A    -11.220976  
      10A    -11.218409    11A    -11.216569    12A     -1.580488  
      13A     -1.472937    14A     -1.370247    15A     -1.198096  
      16A     -1.094049    17A     -1.037896    18A     -0.991254  
      19A     -0.928113    20A     -0.899684    21A     -0.837072  
      22A     -0.787013    23A     -0.770253    24A     -0.729071  
      25A     -0.724185    26A     -0.711108    27A     -0.678004  
      28A     -0.666443    29A     -0.639713    30A     -0.626553  
      31A     -0.599629    32A     -0.583223    33A     -0.574161  
      34A     -0.551151    35A     -0.540254    36A     -0.517821  
      37A     -0.513061    38A     -0.475393    39A     -0.469178  
      40A     -0.466405    41A     -0.465359    42A     -0.444648  
      43A     -0.320347    44A     -0.043564  

    Virtual:                                                              

      45A      0.176137    46A      0.203472    47A      0.212681  
      48A      0.225445    49A      0.251414    50A      0.261062  
      51A      0.261834    52A      0.279371    53A      0.298283  
      54A      0.309806    55A      0.310854    56A      0.316988  
      57A      0.321690    58A      0.327302    59A      0.336107  
      60A      0.342627    61A      0.349935    62A      0.362437  
      63A      0.373369    64A      0.388994    65A      0.421512  
      66A      0.437599    67A      0.470199    68A      0.478639  
      69A      0.483241    70A      0.503451    71A      0.539477  
      72A      0.546390    73A      0.624986    74A      0.647861  
      75A      0.684586    76A      0.725867    77A      0.732845  
      78A      0.739087    79A      0.749450    80A      0.760193  
      81A      0.784263    82A      0.795932    83A      0.837789  
      84A      0.839249    85A      0.858263    86A      0.893593  
      87A      0.910294    88A      0.911728    89A      0.936941  
      90A      0.951540    91A      0.961196    92A      0.976708  
      93A      0.996448    94A      1.004610    95A      1.018463  
      96A      1.042020    97A      1.057062    98A      1.088459  
      99A      1.105826   100A      1.112754   101A      1.121384  
     102A      1.122312   103A      1.141561   104A      1.147535  
     105A      1.155469   106A      1.165297   107A      1.186070  
     108A      1.188547   109A      1.204095   110A      1.212734  
     111A      1.223305   112A      1.246952   113A      1.252762  
     114A      1.264732   115A      1.278556   116A      1.296778  
     117A      1.318414   118A      1.373812   119A      1.383914  
     120A      1.400191   121A      1.425541   122A      1.447453  
     123A      1.496079   124A      1.528506   125A      1.546590  
     126A      1.584909   127A      1.618278   128A      1.658996  
     129A      1.737081   130A      1.756780   131A      1.776841  
     132A      1.792331   133A      1.819390   134A      1.882468  
     135A      1.888137   136A      1.925386   137A      1.978312  
     138A      1.981815   139A      2.012150   140A      2.044797  
     141A      2.053986   142A      2.079812   143A      2.112323  
     144A      2.172706   145A      2.183277   146A      2.201418  
     147A      2.223450   148A      2.231920   149A      2.244269  
     150A      2.256139   151A      2.287399   152A      2.322820  
     153A      2.331751   154A      2.370500   155A      2.379742  
     156A      2.401393   157A      2.422936   158A      2.428478  
     159A      2.455114   160A      2.469666   161A      2.493608  
     162A      2.560170   163A      2.593780   164A      2.613854  
     165A      2.622177   166A      2.649761   167A      2.671738  
     168A      2.681432   169A      2.710931   170A      2.724774  
     171A      2.732503   172A      2.768484   173A      2.786318  
     174A      2.839674   175A      2.867953   176A      2.885240  
     177A      2.966614   178A      2.986886   179A      3.005801  
     180A      3.036537   181A      3.077087   182A      3.105739  
     183A      3.121895   184A      3.177043   185A      3.187080  
     186A      3.282791   187A      3.364243   188A      3.456027  
     189A      3.595844   190A      4.456345   191A      4.574235  
     192A      4.670051   193A      4.677486   194A      4.727007  
     195A      4.785205   196A      4.873557   197A      4.932752  
     198A      5.017082   199A      5.033383   200A      5.063244  
     201A     13.643130  

    Final Occupation by Irrep:
              A 
    DOCC [    44 ]

  Energy converged.

  @DF-RHF Final Energy:  -496.62625369663215

   => Energetics <=

    Nuclear Repulsion Energy =            735.7314635530642590
    One-Electron Energy =               -2130.0735277527032849
    Two-Electron Energy =                 897.7158105030060824
    DFT Exchange-Correlation Energy =       0.0000000000000000
    Empirical Dispersion Energy =           0.0000000000000000
    PCM Polarization Energy =               0.0000000000000000
    EFP Energy =                            0.0000000000000000
    Total Energy =                       -496.6262536966329435

    Alert: EFP and PCM quantities not currently incorporated into SCF psivars.

Properties will be evaluated at   0.000000,   0.000000,   0.000000 Bohr
  ==> Properties <==


Properties computed using the SCF density matrix

  Nuclear Dipole Moment: (a.u.)
     X:    -8.8489      Y:    -2.2581      Z:    -2.4470

  Electronic Dipole Moment: (a.u.)
     X:     8.9935      Y:     1.8766      Z:     1.7456

  Dipole Moment: (a.u.)
     X:     0.1446      Y:    -0.3815      Z:    -0.7015     Total:     0.8115

  Dipole Moment: (Debye)
     X:     0.3676      Y:    -0.9697      Z:    -1.7830     Total:     2.0626


  Saving occupied orbitals to File 180.

*** tstop() called on cx1-3-14-1.cx1.hpc.ic.ac.uk at Tue Jul  5 18:36:54 2016
Module time:
	user time   =      74.91 seconds =       1.25 minutes
	system time =       0.94 seconds =       0.02 minutes
	total time  =         77 seconds =       1.28 minutes
Total time:
	user time   =      74.91 seconds =       1.25 minutes
	system time =       0.94 seconds =       0.02 minutes
	total time  =         77 seconds =       1.28 minutes


Properties will be evaluated at   0.000000,   0.000000,   0.000000 Bohr

Properties computed using the  density matrix

  Nuclear Dipole Moment: (a.u.)
     X:    -8.8489      Y:    -2.2581      Z:    -2.4470

  Electronic Dipole Moment: (a.u.)
     X:     8.9935      Y:     1.8766      Z:     1.7456

  Dipole Moment: (a.u.)
     X:     0.1446      Y:    -0.3815      Z:    -0.7015     Total:     0.8115

  Dipole Moment: (Debye)
     X:     0.3676      Y:    -0.9697      Z:    -1.7830     Total:     2.0626

  Quadrupole Moment: (Debye Ang)
    XX:   -64.0271     YY:   -75.0587     ZZ:   -72.2998
    XY:    -7.4624     XZ:     1.6499     YZ:    -0.0479

  Traceless Quadrupole Moment: (Debye Ang)
    XX:     6.4348     YY:    -4.5968     ZZ:    -1.8380
    XY:    -7.4624     XZ:     1.6499     YZ:    -0.0479

  Mulliken Charges: (a.u.)
   Center  Symbol    Alpha    Beta     Spin     Total
       1     O     4.28934  4.28934  0.00000 -0.57868
       2     C     2.65905  2.65905  0.00000  0.68190
       3     C     3.31585  3.31585  0.00000 -0.63170
       4     O     4.30329  4.30329  0.00000 -0.60658
       5     C     3.22758  3.22758  0.00000 -0.45516
       6     H     0.45517  0.45517  0.00000  0.08965
       7     H     0.57188  0.57188  0.00000 -0.14376
       8     C     3.15093  3.15093  0.00000 -0.30186
       9     H     0.36968  0.36968  0.00000  0.26063
      10     H     0.38752  0.38752  0.00000  0.22495
      11     C     3.16351  3.16351  0.00000 -0.32701
      12     H     0.41041  0.41041  0.00000  0.17919
      13     H     0.41390  0.41390  0.00000  0.17219
      14     C     3.17765  3.17765  0.00000 -0.35530
      15     H     0.41310  0.41310  0.00000  0.17379
      16     H     0.42241  0.42241  0.00000  0.15518
      17     C     3.16652  3.16652  0.00000 -0.33304
      18     H     0.41429  0.41429  0.00000  0.17142
      19     H     0.40579  0.40579  0.00000  0.18842
      20     C     3.22257  3.22257  0.00000 -0.44514
      21     H     0.41296  0.41296  0.00000  0.17409
      22     H     0.43854  0.43854  0.00000  0.12292
      23     H     0.34717  0.34717  0.00000  0.30566
      24     H     0.12595  0.12595  0.00000  0.74810
      25     H     0.42147  0.42147  0.00000  0.15707
      26     C     3.09427  3.09427  0.00000 -0.18854
      27     H     0.40948  0.40948  0.00000  0.18103
      28     H     0.40512  0.40512  0.00000  0.18976
      29     H     0.40459  0.40459  0.00000  0.19083

   Total alpha = 44.00000, Total beta = 44.00000, Total charge =  0.00000


*** PSI4 exiting successfully. Buy a developer a beer!
