    -----------------------------------------------------------------------
          Psi4: An Open-Source Ab Initio Electronic Structure Package
                              Psi4 (no tag) Driver

                          Git: Rev {detached?}  

    J. M. Turney, A. C. Simmonett, R. M. Parrish, E. G. Hohenstein,
    F. A. Evangelista, J. T. Fermann, B. J. Mintz, L. A. Burns, J. J. Wilke,
    M. L. Abrams, N. J. Russ, M. L. Leininger, C. L. Janssen, E. T. Seidl,
    W. D. Allen, H. F. Schaefer, R. A. King, E. F. Valeev, C. D. Sherrill,
    and T. D. Crawford, WIREs Comput. Mol. Sci. 2, 556-565 (2012)
    (doi: 10.1002/wcms.93)

                         Additional Contributions by
    A. E. DePrince, M. Saitow, U. Bozkaya, A. Yu. Sokolov
    -----------------------------------------------------------------------


    Psi4 started on: Tue Jul  5 17:09:03 2016

    Process ID:   4034
    PSI4DATADIR: /export131/home/mjharvey/miniconda3/share
    Memory level set to 256.000 MB

  ==> Input File <==

--------------------------------------------------------------------------
set {
	reference rhf
	basis 6-31G*
}


set_num_threads( 1 )
memory 2 gb

molecule MOL {
0 1

H	 2.451652	 -2.178703	 0.543297
O	 2.773837	 -1.297590	 0.410870
C	 1.759943	 -0.431505	 0.213148
C	 1.359786	 0.341827	 1.298401
C	 1.124910	 -0.295343	 -1.006001
H	 1.869104	 0.217491	 2.235414
C	 0.327673	 1.246498	 1.159194
H	 1.412544	 -0.878157	 -1.858714
C	 0.092310	 0.622590	 -1.110673
H	 0.025202	 1.839478	 2.002250
C	 -0.326370	 1.401858	 -0.055686
N	 -0.576104	 0.762684	 -2.402603
H	 -1.128623	 2.099390	 -0.179153
O	 -0.083451	 0.216725	 -3.343482
O	 -1.574420	 1.413878	 -2.442289

	symmetry c1
}
set optking {
	frozen_dihedral = ("
		11 9 12 14
	")
}

ee = energy('scf')
oeprop('DIPOLE', 'QUADRUPOLE', 'MULLIKEN_CHARGES')
f=open( 'psi4out.xyz', 'w' )
f.write( "15  " )
f.write( str(ee) + "\n" )
f.write( MOL.save_string_xyz() )
f.close()
--------------------------------------------------------------------------

  Memory set to   2.000 GiB by Python script.

*** tstart() called on cx1-1-4-3.cx1.hpc.ic.ac.uk
*** at Tue Jul  5 17:09:03 2016


         ---------------------------------------------------------
                                   SCF
            by Justin Turney, Rob Parrish, and Andy Simmonett
                              RHF Reference
                        1 Threads,   2000 MiB Core
         ---------------------------------------------------------

  ==> Geometry <==

    Molecular point group: c1
    Full point group: C1

    Geometry (in Angstrom), charge = 0, multiplicity = 1:

       Center              X                  Y                   Z               Mass       
    ------------   -----------------  -----------------  -----------------  -----------------
           H          1.973272166228    -2.550901629172     1.340766562279     1.007825032070
           O          2.295457166228    -1.669788629172     1.208339562279    15.994914619560
           C          1.281563166228    -0.803703629172     1.010617562279    12.000000000000
           C          0.881406166228    -0.030371629172     2.095870562279    12.000000000000
           C          0.646530166228    -0.667541629172    -0.208531437721    12.000000000000
           H          1.390724166228    -0.154707629172     3.032883562279     1.007825032070
           C         -0.150706833772     0.874299370828     1.956663562279    12.000000000000
           H          0.934164166228    -1.250355629172    -1.061244437721     1.007825032070
           C         -0.386069833772     0.250391370828    -0.313203437721    12.000000000000
           H         -0.453177833772     1.467279370828     2.799719562279     1.007825032070
           C         -0.804749833772     1.029659370828     0.741783562279    12.000000000000
           N         -1.054483833772     0.390485370828    -1.605133437721    14.003074004780
           H         -1.607002833772     1.727191370828     0.618316562279     1.007825032070
           O         -0.561830833772    -0.155473629172    -2.546012437721    15.994914619560
           O         -2.052799833772     1.041679370828    -1.644819437721    15.994914619560

  Running in c1 symmetry.

  Rotational constants: A =      0.09405  B =      0.03319  C =      0.02466 [cm^-1]
  Rotational constants: A =   2819.69387  B =    995.02976  C =    739.19551 [MHz]
  Nuclear repulsion =  503.202370057762607

  Charge       = 0
  Multiplicity = 1
  Electrons    = 72
  Nalpha       = 36
  Nbeta        = 36

  ==> Algorithm <==

  SCF Algorithm Type is DF.
  DIIS enabled.
  MOM disabled.
  Fractional occupation disabled.
  Guess Type is CORE.
  Energy threshold   = 1.00e-06
  Density threshold  = 1.00e-06
  Integral threshold = 0.00e+00

  ==> Primary Basis <==

  Basis Set: 6-31G*
    Number of shells: 70
    Number of basis function: 160
    Number of Cartesian functions: 160
    Spherical Harmonics?: false
    Max angular momentum: 2

  ==> Pre-Iterations <==

   -------------------------------------------------------
    Irrep   Nso     Nmo     Nalpha   Nbeta   Ndocc  Nsocc
   -------------------------------------------------------
     A        160     160       0       0       0       0
   -------------------------------------------------------
    Total     160     160      36      36      36       0
   -------------------------------------------------------

 OEINTS: Overlap, kinetic, potential, dipole, and quadrupole integrals
         stored in file 35.

  ==> Integral Setup <==

  ==> DFJK: Density-Fitted J/K Matrices <==

    J tasked:                  Yes
    K tasked:                  Yes
    wK tasked:                  No
    OpenMP threads:              1
    Integrals threads:           1
    Memory (MB):              1430
    Algorithm:                Core
    Integral Cache:           NONE
    Schwarz Cutoff:          1E-12
    Fitting Condition:       1E-12

   => Auxiliary Basis Set <=

  Basis Set: 
    Number of shells: 285
    Number of basis function: 935
    Number of Cartesian functions: 935
    Spherical Harmonics?: false
    Max angular momentum: 3

  Minimum eigenvalue in the overlap matrix is 4.1428595933E-04.
  Using Symmetric Orthogonalization.
  SCF Guess: Core (One-Electron) Hamiltonian.

  ==> Iterations <==

                           Total Energy        Delta E     RMS |[F,P]|

   @DF-RHF iter   1:  -421.50699306896018   -4.21507e+02   6.02809e-02 
   @DF-RHF iter   2:  -310.68304372841686    1.10824e+02   5.62251e-02 DIIS
   @DF-RHF iter   3:  -327.78852239690156   -1.71055e+01   7.17194e-02 DIIS
   @DF-RHF iter   4:  -494.80642824407818   -1.67018e+02   2.45755e-02 DIIS
   @DF-RHF iter   5:  -501.37189874390634   -6.56547e+00   2.13599e-02 DIIS
   @DF-RHF iter   6:  -508.21784344977851   -6.84594e+00   7.89171e-03 DIIS
   @DF-RHF iter   7:  -508.86092241105194   -6.43079e-01   3.11130e-03 DIIS
   @DF-RHF iter   8:  -508.96675282250311   -1.05830e-01   1.70647e-03 DIIS
   @DF-RHF iter   9:  -509.01846734501061   -5.17145e-02   4.99413e-04 DIIS
   @DF-RHF iter  10:  -509.02181181619341   -3.34447e-03   1.66278e-04 DIIS
   @DF-RHF iter  11:  -509.02235818974117   -5.46374e-04   7.22910e-05 DIIS
   @DF-RHF iter  12:  -509.02247010837192   -1.11919e-04   3.73930e-05 DIIS
   @DF-RHF iter  13:  -509.02250267878861   -3.25704e-05   1.38666e-05 DIIS
   @DF-RHF iter  14:  -509.02251021771536   -7.53893e-06   5.47870e-06 DIIS
   @DF-RHF iter  15:  -509.02251159938504   -1.38167e-06   2.62226e-06 DIIS
   @DF-RHF iter  16:  -509.02251205273939   -4.53354e-07   1.15790e-06 DIIS
   @DF-RHF iter  17:  -509.02251212120842   -6.84690e-08   4.27004e-07 DIIS

  ==> Post-Iterations <==

    Orbital Energies (a.u.)
    -----------------------

    Doubly Occupied:                                                      

       1A    -20.603883     2A    -20.603262     3A    -20.601822  
       4A    -15.858173     5A    -11.321056     6A    -11.309039  
       7A    -11.269128     8A    -11.267643     9A    -11.265083  
      10A    -11.262418    11A     -1.637059    12A     -1.426588  
      13A     -1.420239    14A     -1.200195    15A     -1.093749  
      16A     -1.045669    17A     -0.963610    18A     -0.870603  
      19A     -0.831724    20A     -0.792511    21A     -0.739438  
      22A     -0.735721    23A     -0.722865    24A     -0.709721  
      25A     -0.679656    26A     -0.642209    27A     -0.626900  
      28A     -0.568641    29A     -0.556687    30A     -0.529736  
      31A     -0.509222    32A     -0.489730    33A     -0.484560  
      34A     -0.453535    35A     -0.376347    36A     -0.356673  

    Virtual:                                                              

      37A      0.059216    38A      0.119504    39A      0.177000  
      40A      0.213413    41A      0.228320    42A      0.288844  
      43A      0.295432    44A      0.324311    45A      0.356664  
      46A      0.385699    47A      0.429283    48A      0.430746  
      49A      0.451394    50A      0.521731    51A      0.534295  
      52A      0.563725    53A      0.615238    54A      0.681062  
      55A      0.694627    56A      0.709538    57A      0.716147  
      58A      0.756037    59A      0.785542    60A      0.797421  
      61A      0.803074    62A      0.812274    63A      0.834845  
      64A      0.873642    65A      0.877063    66A      0.886081  
      67A      0.900274    68A      0.947046    69A      0.975147  
      70A      0.980131    71A      1.010754    72A      1.036949  
      73A      1.047899    74A      1.074807    75A      1.081163  
      76A      1.094001    77A      1.119453    78A      1.140925  
      79A      1.168856    80A      1.176675    81A      1.199015  
      82A      1.220727    83A      1.241315    84A      1.267434  
      85A      1.271357    86A      1.296251    87A      1.312837  
      88A      1.354152    89A      1.381179    90A      1.399828  
      91A      1.409234    92A      1.452504    93A      1.461734  
      94A      1.513975    95A      1.542959    96A      1.588640  
      97A      1.632810    98A      1.653297    99A      1.685603  
     100A      1.709482   101A      1.722378   102A      1.731812  
     103A      1.738456   104A      1.762161   105A      1.906918  
     106A      1.970252   107A      2.008583   108A      2.020170  
     109A      2.042300   110A      2.061441   111A      2.078513  
     112A      2.109255   113A      2.117166   114A      2.181157  
     115A      2.218195   116A      2.233572   117A      2.237328  
     118A      2.251364   119A      2.271366   120A      2.291953  
     121A      2.367375   122A      2.390665   123A      2.429436  
     124A      2.454400   125A      2.470950   126A      2.474269  
     127A      2.544962   128A      2.603400   129A      2.608188  
     130A      2.625173   131A      2.699184   132A      2.742707  
     133A      2.833290   134A      2.866630   135A      2.891229  
     136A      2.920546   137A      2.961231   138A      2.968259  
     139A      3.024539   140A      3.090718   141A      3.099864  
     142A      3.111086   143A      3.165946   144A      3.253895  
     145A      3.300906   146A      3.301465   147A      3.417549  
     148A      3.498707   149A      3.607866   150A      3.834421  
     151A      4.160087   152A      4.269129   153A      4.349407  
     154A      4.435771   155A      4.502742   156A      4.535103  
     157A      4.607999   158A      4.757887   159A      4.871070  
     160A      5.160119  

    Final Occupation by Irrep:
              A 
    DOCC [    36 ]

  Energy converged.

  @DF-RHF Final Energy:  -509.02251212120842

   => Energetics <=

    Nuclear Repulsion Energy =            503.2023700577626073
    One-Electron Energy =               -1692.7994031757857556
    Two-Electron Energy =                 680.5745209968138170
    DFT Exchange-Correlation Energy =       0.0000000000000000
    Empirical Dispersion Energy =           0.0000000000000000
    PCM Polarization Energy =               0.0000000000000000
    EFP Energy =                            0.0000000000000000
    Total Energy =                       -509.0225121212092745

    Alert: EFP and PCM quantities not currently incorporated into SCF psivars.

Properties will be evaluated at   0.000000,   0.000000,   0.000000 Bohr
  ==> Properties <==


Properties computed using the SCF density matrix

  Nuclear Dipole Moment: (a.u.)
     X:     2.0996      Y:    -0.7188      Z:     6.2999

  Electronic Dipole Moment: (a.u.)
     X:    -1.7559      Y:     0.1603      Z:    -4.5046

  Dipole Moment: (a.u.)
     X:     0.3436      Y:    -0.5585      Z:     1.7953     Total:     1.9113

  Dipole Moment: (Debye)
     X:     0.8734      Y:    -1.4195      Z:     4.5632     Total:     4.8581


  Saving occupied orbitals to File 180.

*** tstop() called on cx1-1-4-3.cx1.hpc.ic.ac.uk at Tue Jul  5 17:09:24 2016
Module time:
	user time   =      20.71 seconds =       0.35 minutes
	system time =       0.25 seconds =       0.00 minutes
	total time  =         21 seconds =       0.35 minutes
Total time:
	user time   =      20.71 seconds =       0.35 minutes
	system time =       0.25 seconds =       0.00 minutes
	total time  =         21 seconds =       0.35 minutes


Properties will be evaluated at   0.000000,   0.000000,   0.000000 Bohr

Properties computed using the  density matrix

  Nuclear Dipole Moment: (a.u.)
     X:     2.0996      Y:    -0.7188      Z:     6.2999

  Electronic Dipole Moment: (a.u.)
     X:    -1.7559      Y:     0.1603      Z:    -4.5046

  Dipole Moment: (a.u.)
     X:     0.3436      Y:    -0.5585      Z:     1.7953     Total:     1.9113

  Dipole Moment: (Debye)
     X:     0.8734      Y:    -1.4195      Z:     4.5632     Total:     4.8581

  Quadrupole Moment: (Debye Ang)
    XX:   -64.7342     YY:   -48.9795     ZZ:   -59.5598
    XY:    -0.9038     XZ:    -4.7914     YZ:     1.0966

  Traceless Quadrupole Moment: (Debye Ang)
    XX:    -6.9764     YY:     8.7783     ZZ:    -1.8019
    XY:    -0.9038     XZ:    -4.7914     YZ:     1.0966

  Mulliken Charges: (a.u.)
   Center  Symbol    Alpha    Beta     Spin     Total
       1     H     0.26654  0.26654  0.00000  0.46692
       2     O     4.38313  4.38313  0.00000 -0.76625
       3     C     2.81725  2.81725  0.00000  0.36551
       4     C     3.10284  3.10284  0.00000 -0.20567
       5     C     3.11349  3.11349  0.00000 -0.22697
       6     H     0.38309  0.38309  0.00000  0.23382
       7     C     3.10595  3.10595  0.00000 -0.21191
       8     H     0.36093  0.36093  0.00000  0.27815
       9     C     2.91649  2.91649  0.00000  0.16702
      10     H     0.38756  0.38756  0.00000  0.22487
      11     C     3.09068  3.09068  0.00000 -0.18136
      12     N     3.24224  3.24224  0.00000  0.51552
      13     H     0.36451  0.36451  0.00000  0.27097
      14     O     4.23286  4.23286  0.00000 -0.46572
      15     O     4.23245  4.23245  0.00000 -0.46490

   Total alpha = 36.00000, Total beta = 36.00000, Total charge =  0.00000


*** PSI4 exiting successfully. Buy a developer a beer!
