    -----------------------------------------------------------------------
          Psi4: An Open-Source Ab Initio Electronic Structure Package
                              Psi4 (no tag) Driver

                          Git: Rev {detached?}  

    J. M. Turney, A. C. Simmonett, R. M. Parrish, E. G. Hohenstein,
    F. A. Evangelista, J. T. Fermann, B. J. Mintz, L. A. Burns, J. J. Wilke,
    M. L. Abrams, N. J. Russ, M. L. Leininger, C. L. Janssen, E. T. Seidl,
    W. D. Allen, H. F. Schaefer, R. A. King, E. F. Valeev, C. D. Sherrill,
    and T. D. Crawford, WIREs Comput. Mol. Sci. 2, 556-565 (2012)
    (doi: 10.1002/wcms.93)

                         Additional Contributions by
    A. E. DePrince, M. Saitow, U. Bozkaya, A. Yu. Sokolov
    -----------------------------------------------------------------------


    Psi4 started on: Tue Jul  5 16:33:56 2016

    Process ID:  25264
    PSI4DATADIR: /export131/home/mjharvey/miniconda3/share
    Memory level set to 256.000 MB

  ==> Input File <==

--------------------------------------------------------------------------
set {
	reference rhf
	basis 6-31G*
}


set_num_threads( 1 )
memory 2 gb

molecule MOL {
0 1

H	 -2.798360	 -0.862255	 -0.071053
N	 -1.863561	 -0.715187	 0.256814
C	 -1.344686	 0.554728	 -0.219830
H	 -1.300452	 -1.461917	 -0.101532
C	 0.138189	 0.649650	 0.072070
H	 -1.495997	 0.717686	 -1.287796
H	 -1.852473	 1.356757	 0.307127
O	 0.311486	 0.670507	 1.460098
H	 0.662028	 -0.203838	 -0.357801
H	 0.540985	 1.557221	 -0.372122
C	 1.630090	 0.842164	 1.871667
H	 1.639031	 0.840678	 2.953155
H	 2.266941	 0.035020	 1.514008
H	 2.037656	 1.786446	 1.516660

	symmetry c1
}
set optking {
	frozen_dihedral = ("
		8 5 3 6,
		5 8 11 13,
		11 8 5 3
	")
}

ee = energy('scf')
oeprop('DIPOLE', 'QUADRUPOLE', 'MULLIKEN_CHARGES')
f=open( 'psi4out.xyz', 'w' )
f.write( "14  " )
f.write( str(ee) + "\n" )
f.write( MOL.save_string_xyz() )
f.close()
--------------------------------------------------------------------------

  Memory set to   2.000 GiB by Python script.

*** tstart() called on cx1-3-6-4.cx1.hpc.ic.ac.uk
*** at Tue Jul  5 16:33:56 2016


         ---------------------------------------------------------
                                   SCF
            by Justin Turney, Rob Parrish, and Andy Simmonett
                              RHF Reference
                        1 Threads,   2000 MiB Core
         ---------------------------------------------------------

  ==> Geometry <==

    Molecular point group: c1
    Full point group: C1

    Geometry (in Angstrom), charge = 0, multiplicity = 1:

       Center              X                  Y                   Z               Mass       
    ------------   -----------------  -----------------  -----------------  -----------------
           H         -2.580781563287    -1.249417239133    -0.760689869644     1.007825032070
           N         -1.645982563287    -1.102349239133    -0.432822869644    14.003074004780
           C         -1.127107563287     0.167565760867    -0.909466869644    12.000000000000
           H         -1.082873563287    -1.849079239133    -0.791168869644     1.007825032070
           C          0.355767436713     0.262487760867    -0.617566869644    12.000000000000
           H         -1.278418563287     0.330523760867    -1.977432869644     1.007825032070
           H         -1.634894563287     0.969594760867    -0.382509869644     1.007825032070
           O          0.529064436713     0.283344760867     0.770461130356    15.994914619560
           H          0.879606436713    -0.591000239133    -1.047437869644     1.007825032070
           H          0.758563436713     1.170058760867    -1.061758869644     1.007825032070
           C          1.847668436713     0.455001760867     1.182030130356    12.000000000000
           H          1.856609436713     0.453515760867     2.263518130356     1.007825032070
           H          2.484519436713    -0.352142239133     0.824371130356     1.007825032070
           H          2.255234436713     1.399283760867     0.827023130356     1.007825032070

  Running in c1 symmetry.

  Rotational constants: A =      0.45229  B =      0.08825  C =      0.08109 [cm^-1]
  Rotational constants: A =  13559.16590  B =   2645.60005  C =   2431.04650 [MHz]
  Nuclear repulsion =  194.185805263155714

  Charge       = 0
  Multiplicity = 1
  Electrons    = 42
  Nalpha       = 21
  Nbeta        = 21

  ==> Algorithm <==

  SCF Algorithm Type is DF.
  DIIS enabled.
  MOM disabled.
  Fractional occupation disabled.
  Guess Type is CORE.
  Energy threshold   = 1.00e-06
  Density threshold  = 1.00e-06
  Integral threshold = 0.00e+00

  ==> Primary Basis <==

  Basis Set: 6-31G*
    Number of shells: 48
    Number of basis function: 93
    Number of Cartesian functions: 93
    Spherical Harmonics?: false
    Max angular momentum: 2

  ==> Pre-Iterations <==

   -------------------------------------------------------
    Irrep   Nso     Nmo     Nalpha   Nbeta   Ndocc  Nsocc
   -------------------------------------------------------
     A         93      93       0       0       0       0
   -------------------------------------------------------
    Total      93      93      21      21      21       0
   -------------------------------------------------------

 OEINTS: Overlap, kinetic, potential, dipole, and quadrupole integrals
         stored in file 35.

  ==> Integral Setup <==

  ==> DFJK: Density-Fitted J/K Matrices <==

    J tasked:                  Yes
    K tasked:                  Yes
    wK tasked:                  No
    OpenMP threads:              1
    Integrals threads:           1
    Memory (MB):              1430
    Algorithm:                Core
    Integral Cache:           NONE
    Schwarz Cutoff:          1E-12
    Fitting Condition:       1E-12

   => Auxiliary Basis Set <=

  Basis Set: 
    Number of shells: 201
    Number of basis function: 630
    Number of Cartesian functions: 630
    Spherical Harmonics?: false
    Max angular momentum: 3

  Minimum eigenvalue in the overlap matrix is 4.4970097498E-03.
  Using Symmetric Orthogonalization.
  SCF Guess: Core (One-Electron) Hamiltonian.

  ==> Iterations <==

                           Total Energy        Delta E     RMS |[F,P]|

   @DF-RHF iter   1:  -201.62195837922559   -2.01622e+02   7.99003e-02 
   @DF-RHF iter   2:  -154.78773096194294    4.68342e+01   6.66421e-02 DIIS
   @DF-RHF iter   3:  -210.52217560987327   -5.57344e+01   6.06657e-02 DIIS
   @DF-RHF iter   4:  -238.93760973429335   -2.84154e+01   4.25181e-02 DIIS
   @DF-RHF iter   5:  -247.78440286355476   -8.84679e+00   8.65816e-03 DIIS
   @DF-RHF iter   6:  -248.06092050171731   -2.76518e-01   3.55778e-03 DIIS
   @DF-RHF iter   7:  -248.11342064175284   -5.25001e-02   9.83609e-04 DIIS
   @DF-RHF iter   8:  -248.11787736376004   -4.45672e-03   2.82759e-04 DIIS
   @DF-RHF iter   9:  -248.11831542803077   -4.38064e-04   1.08365e-04 DIIS
   @DF-RHF iter  10:  -248.11839133705865   -7.59090e-05   3.70273e-05 DIIS
   @DF-RHF iter  11:  -248.11840216369194   -1.08266e-05   7.61967e-06 DIIS
   @DF-RHF iter  12:  -248.11840259149380   -4.27802e-07   2.92759e-06 DIIS
   @DF-RHF iter  13:  -248.11840264913735   -5.76435e-08   7.13540e-07 DIIS

  ==> Post-Iterations <==

    Orbital Energies (a.u.)
    -----------------------

    Doubly Occupied:                                                      

       1A    -20.550128     2A    -15.530454     3A    -11.269389  
       4A    -11.261795     5A    -11.241929     6A     -1.374915  
       7A     -1.176572     8A     -0.998767     9A     -0.903129  
      10A     -0.819948    11A     -0.684025    12A     -0.664545  
      13A     -0.649414    14A     -0.611829    15A     -0.587848  
      16A     -0.565442    17A     -0.517440    18A     -0.499943  
      19A     -0.464562    20A     -0.415591    21A     -0.378563  

    Virtual:                                                              

      22A      0.226625    23A      0.253760    24A      0.284957  
      25A      0.291310    26A      0.315067    27A      0.321727  
      28A      0.331070    29A      0.343889    30A      0.349416  
      31A      0.364472    32A      0.424627    33A      0.443742  
      34A      0.460678    35A      0.723232    36A      0.769288  
      37A      0.776661    38A      0.797430    39A      0.806425  
      40A      0.848902    41A      0.874900    42A      0.937925  
      43A      0.993437    44A      1.007926    45A      1.062412  
      46A      1.097896    47A      1.112071    48A      1.151952  
      49A      1.155812    50A      1.163449    51A      1.194498  
      52A      1.209933    53A      1.226453    54A      1.250110  
      55A      1.260770    56A      1.293074    57A      1.307386  
      58A      1.379304    59A      1.427042    60A      1.583228  
      61A      1.682691    62A      1.701038    63A      1.739577  
      64A      1.770975    65A      1.790070    66A      1.951653  
      67A      2.008922    68A      2.060071    69A      2.229796  
      70A      2.237635    71A      2.276956    72A      2.379337  
      73A      2.401046    74A      2.434887    75A      2.476864  
      76A      2.505370    77A      2.527741    78A      2.600265  
      79A      2.625778    80A      2.702118    81A      2.733903  
      82A      2.831138    83A      2.878174    84A      2.903131  
      85A      3.019765    86A      3.093588    87A      3.198219  
      88A      3.345275    89A      4.216057    90A      4.368381  
      91A      4.659745    92A      4.696056    93A      4.891555  

    Final Occupation by Irrep:
              A 
    DOCC [    21 ]

  Energy converged.

  @DF-RHF Final Energy:  -248.11840264913735

   => Energetics <=

    Nuclear Repulsion Energy =            194.1858052631557143
    One-Electron Energy =                -722.2758387058249809
    Two-Electron Energy =                 279.9716307935319719
    DFT Exchange-Correlation Energy =       0.0000000000000000
    Empirical Dispersion Energy =           0.0000000000000000
    PCM Polarization Energy =               0.0000000000000000
    EFP Energy =                            0.0000000000000000
    Total Energy =                       -248.1184026491372379

    Alert: EFP and PCM quantities not currently incorporated into SCF psivars.

Properties will be evaluated at   0.000000,   0.000000,   0.000000 Bohr
  ==> Properties <==


Properties computed using the SCF density matrix

  Nuclear Dipole Moment: (a.u.)
     X:     1.5612      Y:     0.2683      Z:    -1.9694

  Electronic Dipole Moment: (a.u.)
     X:    -1.1844      Y:    -0.2289      Z:     1.0655

  Dipole Moment: (a.u.)
     X:     0.3769      Y:     0.0394      Z:    -0.9040     Total:     0.9802

  Dipole Moment: (Debye)
     X:     0.9579      Y:     0.1003      Z:    -2.2977     Total:     2.4914


  Saving occupied orbitals to File 180.

*** tstop() called on cx1-3-6-4.cx1.hpc.ic.ac.uk at Tue Jul  5 16:34:01 2016
Module time:
	user time   =       4.87 seconds =       0.08 minutes
	system time =       0.04 seconds =       0.00 minutes
	total time  =          5 seconds =       0.08 minutes
Total time:
	user time   =       4.87 seconds =       0.08 minutes
	system time =       0.04 seconds =       0.00 minutes
	total time  =          5 seconds =       0.08 minutes


Properties will be evaluated at   0.000000,   0.000000,   0.000000 Bohr

Properties computed using the  density matrix

  Nuclear Dipole Moment: (a.u.)
     X:     1.5612      Y:     0.2683      Z:    -1.9694

  Electronic Dipole Moment: (a.u.)
     X:    -1.1844      Y:    -0.2289      Z:     1.0655

  Dipole Moment: (a.u.)
     X:     0.3769      Y:     0.0394      Z:    -0.9040     Total:     0.9802

  Dipole Moment: (Debye)
     X:     0.9579      Y:     0.1003      Z:    -2.2977     Total:     2.4914

  Quadrupole Moment: (Debye Ang)
    XX:   -28.2283     YY:   -30.9556     ZZ:   -31.6093
    XY:     0.6063     XZ:     4.1210     YZ:     2.1741

  Traceless Quadrupole Moment: (Debye Ang)
    XX:     2.0361     YY:    -0.6912     ZZ:    -1.3449
    XY:     0.6063     XZ:     4.1210     YZ:     2.1741

  Mulliken Charges: (a.u.)
   Center  Symbol    Alpha    Beta     Spin     Total
       1     H     0.33293  0.33293  0.00000  0.33414
       2     N     3.91205  3.91205  0.00000 -0.82411
       3     C     3.06703  3.06703  0.00000 -0.13405
       4     H     0.33677  0.33677  0.00000  0.32647
       5     C     2.99311  2.99311  0.00000  0.01377
       6     H     0.43434  0.43434  0.00000  0.13131
       7     H     0.41039  0.41039  0.00000  0.17922
       8     O     4.29621  4.29621  0.00000 -0.59241
       9     H     0.43488  0.43488  0.00000  0.13024
      10     H     0.42902  0.42902  0.00000  0.14195
      11     C     3.07851  3.07851  0.00000 -0.15702
      12     H     0.41094  0.41094  0.00000  0.17812
      13     H     0.43175  0.43175  0.00000  0.13650
      14     H     0.43207  0.43207  0.00000  0.13586

   Total alpha = 21.00000, Total beta = 21.00000, Total charge = -0.00000


*** PSI4 exiting successfully. Buy a developer a beer!
