    -----------------------------------------------------------------------
          Psi4: An Open-Source Ab Initio Electronic Structure Package
                              Psi4 (no tag) Driver

                          Git: Rev {detached?}  

    J. M. Turney, A. C. Simmonett, R. M. Parrish, E. G. Hohenstein,
    F. A. Evangelista, J. T. Fermann, B. J. Mintz, L. A. Burns, J. J. Wilke,
    M. L. Abrams, N. J. Russ, M. L. Leininger, C. L. Janssen, E. T. Seidl,
    W. D. Allen, H. F. Schaefer, R. A. King, E. F. Valeev, C. D. Sherrill,
    and T. D. Crawford, WIREs Comput. Mol. Sci. 2, 556-565 (2012)
    (doi: 10.1002/wcms.93)

                         Additional Contributions by
    A. E. DePrince, M. Saitow, U. Bozkaya, A. Yu. Sokolov
    -----------------------------------------------------------------------


    Psi4 started on: Tue Jul  5 16:44:40 2016

    Process ID:  13837
    PSI4DATADIR: /export131/home/mjharvey/miniconda3/share
    Memory level set to 256.000 MB

  ==> Input File <==

--------------------------------------------------------------------------
set {
	reference rhf
	basis 6-31G*
}


set_num_threads( 1 )
memory 2 gb

molecule MOL {
0 1

H	 -2.365627	 -1.312883	 -0.379134
C	 -1.358347	 -1.274295	 0.019669
C	 -0.681945	 0.000119	 -0.470601
H	 -0.826096	 -2.155117	 -0.321105
H	 -1.409554	 -1.292283	 1.100109
C	 -1.357790	 1.274691	 0.020220
N	 0.739525	 -0.000142	 0.006128
H	 -0.594190	 0.000341	 -1.545128
H	 -2.364980	 1.313977	 -0.378631
H	 -0.825080	 2.155361	 -0.320114
H	 -1.409060	 1.292170	 1.100671
O	 1.477269	 0.809850	 -0.463156
O	 1.042170	 -0.812825	 0.826709

	symmetry c1
}
ee = energy('scf')
oeprop('DIPOLE', 'QUADRUPOLE', 'MULLIKEN_CHARGES')
f=open( 'psi4out.xyz', 'w' )
f.write( "13  " )
f.write( str(ee) + "\n" )
f.write( MOL.save_string_xyz() )
f.close()
--------------------------------------------------------------------------

  Memory set to   2.000 GiB by Python script.

*** tstart() called on cx1-3-6-2.cx1.hpc.ic.ac.uk
*** at Tue Jul  5 16:44:40 2016


         ---------------------------------------------------------
                                   SCF
            by Justin Turney, Rob Parrish, and Andy Simmonett
                              RHF Reference
                        1 Threads,   2000 MiB Core
         ---------------------------------------------------------

  ==> Geometry <==

    Molecular point group: c1
    Full point group: C1

    Geometry (in Angstrom), charge = 0, multiplicity = 1:

       Center              X                  Y                   Z               Mass       
    ------------   -----------------  -----------------  -----------------  -----------------
           H         -2.365690123939    -1.312413419499    -0.378944409829     1.007825032070
           C         -1.358410123939    -1.273825419499     0.019858590171    12.000000000000
           C         -0.682008123939     0.000588580501    -0.470411409829    12.000000000000
           H         -0.826159123939    -2.154647419499    -0.320915409829     1.007825032070
           H         -1.409617123939    -1.291813419499     1.100298590171     1.007825032070
           C         -1.357853123939     1.275160580501     0.020409590171    12.000000000000
           N          0.739461876061     0.000327580501     0.006317590171    14.003074004780
           H         -0.594253123939     0.000810580501    -1.544938409829     1.007825032070
           H         -2.365043123939     1.314446580501    -0.378441409829     1.007825032070
           H         -0.825143123939     2.155830580501    -0.319924409829     1.007825032070
           H         -1.409123123939     1.292639580501     1.100860590171     1.007825032070
           O          1.477205876061     0.810319580501    -0.462966409829    15.994914619560
           O          1.042106876061    -0.812355419499     0.826898590171    15.994914619560

  Running in c1 symmetry.

  Rotational constants: A =      0.17234  B =      0.11652  C =      0.08092 [cm^-1]
  Rotational constants: A =   5166.53119  B =   3493.21986  C =   2425.80910 [MHz]
  Nuclear repulsion =  257.371228759045778

  Charge       = 0
  Multiplicity = 1
  Electrons    = 48
  Nalpha       = 24
  Nbeta        = 24

  ==> Algorithm <==

  SCF Algorithm Type is DF.
  DIIS enabled.
  MOM disabled.
  Fractional occupation disabled.
  Guess Type is CORE.
  Energy threshold   = 1.00e-06
  Density threshold  = 1.00e-06
  Integral threshold = 0.00e+00

  ==> Primary Basis <==

  Basis Set: 6-31G*
    Number of shells: 50
    Number of basis function: 104
    Number of Cartesian functions: 104
    Spherical Harmonics?: false
    Max angular momentum: 2

  ==> Pre-Iterations <==

   -------------------------------------------------------
    Irrep   Nso     Nmo     Nalpha   Nbeta   Ndocc  Nsocc
   -------------------------------------------------------
     A        104     104       0       0       0       0
   -------------------------------------------------------
    Total     104     104      24      24      24       0
   -------------------------------------------------------

 OEINTS: Overlap, kinetic, potential, dipole, and quadrupole integrals
         stored in file 35.

  ==> Integral Setup <==

  ==> DFJK: Density-Fitted J/K Matrices <==

    J tasked:                  Yes
    K tasked:                  Yes
    wK tasked:                  No
    OpenMP threads:              1
    Integrals threads:           1
    Memory (MB):              1430
    Algorithm:                Core
    Integral Cache:           NONE
    Schwarz Cutoff:          1E-12
    Fitting Condition:       1E-12

   => Auxiliary Basis Set <=

  Basis Set: 
    Number of shells: 207
    Number of basis function: 661
    Number of Cartesian functions: 661
    Spherical Harmonics?: false
    Max angular momentum: 3

  Minimum eigenvalue in the overlap matrix is 2.7085431019E-03.
  Using Symmetric Orthogonalization.
  SCF Guess: Core (One-Electron) Hamiltonian.

  ==> Iterations <==

                           Total Energy        Delta E     RMS |[F,P]|

   @DF-RHF iter   1:  -237.45843758912298   -2.37458e+02   8.67313e-02 
   @DF-RHF iter   2:  -211.83466591428811    2.56238e+01   6.84200e-02 DIIS
   @DF-RHF iter   3:  -256.84207754580638   -4.50074e+01   7.08196e-02 DIIS
   @DF-RHF iter   4:  -317.76204341002978   -6.09200e+01   2.21489e-02 DIIS
   @DF-RHF iter   5:  -321.35254750619907   -3.59050e+00   8.26498e-03 DIIS
   @DF-RHF iter   6:  -321.69701042841194   -3.44463e-01   2.82449e-03 DIIS
   @DF-RHF iter   7:  -321.72935341290855   -3.23430e-02   1.16888e-03 DIIS
   @DF-RHF iter   8:  -321.73553170558495   -6.17829e-03   5.20689e-04 DIIS
   @DF-RHF iter   9:  -321.73694539520199   -1.41369e-03   2.27454e-04 DIIS
   @DF-RHF iter  10:  -321.73731259827565   -3.67203e-04   9.05419e-05 DIIS
   @DF-RHF iter  11:  -321.73736875039634   -5.61521e-05   3.31057e-05 DIIS
   @DF-RHF iter  12:  -321.73737993251444   -1.11821e-05   9.51549e-06 DIIS
   @DF-RHF iter  13:  -321.73738104263640   -1.11012e-06   3.91832e-06 DIIS
   @DF-RHF iter  14:  -321.73738131996419   -2.77328e-07   1.56668e-06 DIIS
   @DF-RHF iter  15:  -321.73738137639447   -5.64303e-08   5.37498e-07 DIIS

  ==> Post-Iterations <==

    Orbital Energies (a.u.)
    -----------------------

    Doubly Occupied:                                                      

       1A    -20.600641     2A    -20.598517     3A    -15.843673  
       4A    -11.306570     5A    -11.247682     6A    -11.238547  
       7A     -1.629196     8A     -1.414885     9A     -1.143458  
      10A     -0.970697    11A     -0.957873    12A     -0.812638  
      13A     -0.759337    14A     -0.726159    15A     -0.722388  
      16A     -0.643448    17A     -0.590833    18A     -0.587217  
      19A     -0.571833    20A     -0.526992    21A     -0.521921  
      22A     -0.480690    23A     -0.471754    24A     -0.446871  

    Virtual:                                                              

      25A      0.121188    26A      0.219076    27A      0.263534  
      28A      0.272497    29A      0.285426    30A      0.300662  
      31A      0.326304    32A      0.333521    33A      0.347653  
      34A      0.374369    35A      0.407233    36A      0.536777  
      37A      0.612427    38A      0.675756    39A      0.692449  
      40A      0.722490    41A      0.757451    42A      0.805173  
      43A      0.841546    44A      0.892877    45A      0.932424  
      46A      0.952947    47A      0.961636    48A      1.008103  
      49A      1.060979    50A      1.083950    51A      1.102329  
      52A      1.115922    53A      1.135284    54A      1.148945  
      55A      1.158482    56A      1.185334    57A      1.205398  
      58A      1.223679    59A      1.249439    60A      1.273656  
      61A      1.313008    62A      1.314866    63A      1.379327  
      64A      1.396736    65A      1.549668    66A      1.598161  
      67A      1.689570    68A      1.717969    69A      1.833860  
      70A      1.860932    71A      1.968266    72A      1.986963  
      73A      2.024302    74A      2.104195    75A      2.115622  
      76A      2.146097    77A      2.179760    78A      2.229584  
      79A      2.255617    80A      2.286773    81A      2.343002  
      82A      2.384838    83A      2.409471    84A      2.449633  
      85A      2.535496    86A      2.571645    87A      2.582642  
      88A      2.688347    89A      2.702612    90A      2.774201  
      91A      2.887018    92A      2.926013    93A      2.993501  
      94A      3.084598    95A      3.238579    96A      3.290850  
      97A      3.315709    98A      3.507923    99A      4.115772  
     100A      4.272228   101A      4.290218   102A      4.607835  
     103A      4.732594   104A      4.950269  

    Final Occupation by Irrep:
              A 
    DOCC [    24 ]

  Energy converged.

  @DF-RHF Final Energy:  -321.73738137639447

   => Energetics <=

    Nuclear Repulsion Energy =            257.3712287590457777
    One-Electron Energy =                -948.5896557099362099
    Two-Electron Energy =                 369.4810455744966475
    DFT Exchange-Correlation Energy =       0.0000000000000000
    Empirical Dispersion Energy =           0.0000000000000000
    PCM Polarization Energy =               0.0000000000000000
    EFP Energy =                            0.0000000000000000
    Total Energy =                       -321.7373813763938415

    Alert: EFP and PCM quantities not currently incorporated into SCF psivars.

Properties will be evaluated at   0.000000,   0.000000,   0.000000 Bohr
  ==> Properties <==


Properties computed using the SCF density matrix

  Nuclear Dipole Moment: (a.u.)
     X:    -9.1726      Y:     0.0045      Z:    -0.6939

  Electronic Dipole Moment: (a.u.)
     X:     7.5869      Y:     0.0140      Z:     0.2642

  Dipole Moment: (a.u.)
     X:    -1.5857      Y:     0.0186      Z:    -0.4297     Total:     1.6430

  Dipole Moment: (Debye)
     X:    -4.0304      Y:     0.0472      Z:    -1.0923     Total:     4.1760


  Saving occupied orbitals to File 180.

*** tstop() called on cx1-3-6-2.cx1.hpc.ic.ac.uk at Tue Jul  5 16:44:46 2016
Module time:
	user time   =       5.86 seconds =       0.10 minutes
	system time =       0.05 seconds =       0.00 minutes
	total time  =          6 seconds =       0.10 minutes
Total time:
	user time   =       5.86 seconds =       0.10 minutes
	system time =       0.05 seconds =       0.00 minutes
	total time  =          6 seconds =       0.10 minutes


Properties will be evaluated at   0.000000,   0.000000,   0.000000 Bohr

Properties computed using the  density matrix

  Nuclear Dipole Moment: (a.u.)
     X:    -9.1726      Y:     0.0045      Z:    -0.6939

  Electronic Dipole Moment: (a.u.)
     X:     7.5869      Y:     0.0140      Z:     0.2642

  Dipole Moment: (a.u.)
     X:    -1.5857      Y:     0.0186      Z:    -0.4297     Total:     1.6430

  Dipole Moment: (Debye)
     X:    -4.0304      Y:     0.0472      Z:    -1.0923     Total:     4.1760

  Quadrupole Moment: (Debye Ang)
    XX:   -39.3192     YY:   -36.8710     ZZ:   -36.1771
    XY:    -1.0875     XZ:    -0.0989     YZ:     2.3560

  Traceless Quadrupole Moment: (Debye Ang)
    XX:    -1.8635     YY:     0.5848     ZZ:     1.2787
    XY:    -1.0875     XZ:    -0.0989     YZ:     2.3560

  Mulliken Charges: (a.u.)
   Center  Symbol    Alpha    Beta     Spin     Total
       1     H     0.41375  0.41375  0.00000  0.17250
       2     C     3.24141  3.24141  0.00000 -0.48281
       3     C     3.02628  3.02628  0.00000 -0.05257
       4     H     0.40185  0.40185  0.00000  0.19630
       5     H     0.40073  0.40073  0.00000  0.19855
       6     C     3.24976  3.24976  0.00000 -0.49953
       7     N     3.21624  3.21624  0.00000  0.56751
       8     H     0.38639  0.38639  0.00000  0.22721
       9     H     0.40630  0.40630  0.00000  0.18741
      10     H     0.39390  0.39390  0.00000  0.21219
      11     H     0.40465  0.40465  0.00000  0.19069
      12     O     4.23086  4.23086  0.00000 -0.46172
      13     O     4.22787  4.22787  0.00000 -0.45573

   Total alpha = 24.00000, Total beta = 24.00000, Total charge = -0.00000


*** PSI4 exiting successfully. Buy a developer a beer!
