    -----------------------------------------------------------------------
          Psi4: An Open-Source Ab Initio Electronic Structure Package
                              Psi4 (no tag) Driver

                          Git: Rev {detached?}  

    J. M. Turney, A. C. Simmonett, R. M. Parrish, E. G. Hohenstein,
    F. A. Evangelista, J. T. Fermann, B. J. Mintz, L. A. Burns, J. J. Wilke,
    M. L. Abrams, N. J. Russ, M. L. Leininger, C. L. Janssen, E. T. Seidl,
    W. D. Allen, H. F. Schaefer, R. A. King, E. F. Valeev, C. D. Sherrill,
    and T. D. Crawford, WIREs Comput. Mol. Sci. 2, 556-565 (2012)
    (doi: 10.1002/wcms.93)

                         Additional Contributions by
    A. E. DePrince, M. Saitow, U. Bozkaya, A. Yu. Sokolov
    -----------------------------------------------------------------------


    Psi4 started on: Tue Jul  5 17:24:49 2016

    Process ID:  19261
    PSI4DATADIR: /export131/home/mjharvey/miniconda3/share
    Memory level set to 256.000 MB

  ==> Input File <==

--------------------------------------------------------------------------
set {
	reference rhf
	basis 6-31G*
}


set_num_threads( 1 )
memory 2 gb

molecule MOL {
0 1

O	 3.225979	 0.970355	 -0.599647
C	 2.701189	 0.057885	 -0.047330
C	 1.245376	 -0.013843	 0.345420
O	 3.347903	 -1.046386	 0.304773
C	 0.455112	 1.231400	 -0.050772
H	 0.838542	 -0.913825	 -0.103701
H	 1.208210	 -0.175333	 1.419774
C	 -0.998893	 1.219485	 0.433193
H	 0.482531	 1.345121	 -1.130325
H	 0.957290	 2.103070	 0.354729
C	 -1.883438	 0.145884	 -0.207175
H	 -1.431207	 2.195402	 0.224832
H	 -1.019646	 1.105716	 1.516076
C	 -3.347647	 0.245583	 0.225435
H	 -1.822183	 0.231698	 -1.291012
H	 -1.510341	 -0.844814	 0.042401
C	 -3.938001	 1.645675	 0.048363
H	 -3.435373	 -0.051095	 1.269236
H	 -3.940821	 -0.468147	 -0.344158
C	 -3.646876	 2.247377	 -1.326010
H	 -5.014070	 1.604692	 0.203404
H	 -3.543755	 2.303155	 0.820420
H	 -4.077860	 3.239270	 -1.420923
H	 -4.059260	 1.630388	 -2.119395
H	 -2.577607	 2.333616	 -1.497769
C	 4.728119	 -1.109107	 -0.004993
H	 4.882018	 -1.033965	 -1.071845
H	 5.068212	 -2.067527	 0.355250
H	 5.265056	 -0.311663	 0.488280

	symmetry c1
}
set optking {
	frozen_dihedral = ("
		21 17 14 11,
		15 11 8 5,
		6 3 5 9,
		11 8 5 9,
		2 4 26 27,
		1 2 4 26,
		6 3 2 1
	")
}

ee = energy('scf')
oeprop('DIPOLE', 'QUADRUPOLE', 'MULLIKEN_CHARGES')
f=open( 'psi4out.xyz', 'w' )
f.write( "29  " )
f.write( str(ee) + "\n" )
f.write( MOL.save_string_xyz() )
f.close()
--------------------------------------------------------------------------

  Memory set to   2.000 GiB by Python script.

*** tstart() called on cx1-3-14-1.cx1.hpc.ic.ac.uk
*** at Tue Jul  5 17:24:49 2016


         ---------------------------------------------------------
                                   SCF
            by Justin Turney, Rob Parrish, and Andy Simmonett
                              RHF Reference
                        1 Threads,   2000 MiB Core
         ---------------------------------------------------------

  ==> Geometry <==

    Molecular point group: c1
    Full point group: C1

    Geometry (in Angstrom), charge = 0, multiplicity = 1:

       Center              X                  Y                   Z               Mass       
    ------------   -----------------  -----------------  -----------------  -----------------
           O          3.004072222683     0.469823511141    -0.510951267306    15.994914619560
           C          2.479282222683    -0.442646488859     0.041365732694    12.000000000000
           C          1.023469222683    -0.514374488859     0.434115732694    12.000000000000
           O          3.125996222683    -1.546917488859     0.393468732694    15.994914619560
           C          0.233205222683     0.730868511141     0.037923732694    12.000000000000
           H          0.616635222683    -1.414356488859    -0.015005267306     1.007825032070
           H          0.986303222683    -0.675864488859     1.508469732694     1.007825032070
           C         -1.220799777317     0.718953511141     0.521888732694    12.000000000000
           H          0.260624222683     0.844589511141    -1.041629267306     1.007825032070
           H          0.735383222683     1.602538511141     0.443424732694     1.007825032070
           C         -2.105344777317    -0.354647488859    -0.118479267306    12.000000000000
           H         -1.653113777317     1.694870511141     0.313527732694     1.007825032070
           H         -1.241552777317     0.605184511141     1.604771732694     1.007825032070
           C         -3.569553777317    -0.254948488859     0.314130732694    12.000000000000
           H         -2.044089777317    -0.268833488859    -1.202316267306     1.007825032070
           H         -1.732247777317    -1.345345488859     0.131096732694     1.007825032070
           C         -4.159907777317     1.145143511141     0.137058732694    12.000000000000
           H         -3.657279777317    -0.551626488859     1.357931732694     1.007825032070
           H         -4.162727777317    -0.968678488859    -0.255462267306     1.007825032070
           C         -3.868782777317     1.746845511141    -1.237314267306    12.000000000000
           H         -5.235976777317     1.104160511141     0.292099732694     1.007825032070
           H         -3.765661777317     1.802623511141     0.909115732694     1.007825032070
           H         -4.299766777317     2.738738511141    -1.332227267306     1.007825032070
           H         -4.281166777317     1.129856511141    -2.030699267306     1.007825032070
           H         -2.799513777317     1.833084511141    -1.409073267306     1.007825032070
           C          4.506212222683    -1.609638488859     0.083702732694    12.000000000000
           H          4.660111222683    -1.534496488859    -0.983149267306     1.007825032070
           H          4.846305222683    -2.568058488859     0.443945732694     1.007825032070
           H          5.043149222683    -0.812194488859     0.576975732694     1.007825032070

  Running in c1 symmetry.

  Rotational constants: A =      0.11412  B =      0.01075  C =      0.01024 [cm^-1]
  Rotational constants: A =   3421.10190  B =    322.13465  C =    306.87126 [MHz]
  Nuclear repulsion =  627.104659498788351

  Charge       = 0
  Multiplicity = 1
  Electrons    = 88
  Nalpha       = 44
  Nbeta        = 44

  ==> Algorithm <==

  SCF Algorithm Type is DF.
  DIIS enabled.
  MOM disabled.
  Fractional occupation disabled.
  Guess Type is CORE.
  Energy threshold   = 1.00e-06
  Density threshold  = 1.00e-06
  Integral threshold = 0.00e+00

  ==> Primary Basis <==

  Basis Set: 6-31G*
    Number of shells: 102
    Number of basis function: 201
    Number of Cartesian functions: 201
    Spherical Harmonics?: false
    Max angular momentum: 2

  ==> Pre-Iterations <==

   -------------------------------------------------------
    Irrep   Nso     Nmo     Nalpha   Nbeta   Ndocc  Nsocc
   -------------------------------------------------------
     A        201     201       0       0       0       0
   -------------------------------------------------------
    Total     201     201      44      44      44       0
   -------------------------------------------------------

 OEINTS: Overlap, kinetic, potential, dipole, and quadrupole integrals
         stored in file 35.

  ==> Integral Setup <==

  ==> DFJK: Density-Fitted J/K Matrices <==

    J tasked:                  Yes
    K tasked:                  Yes
    wK tasked:                  No
    OpenMP threads:              1
    Integrals threads:           1
    Memory (MB):              1430
    Algorithm:                Core
    Integral Cache:           NONE
    Schwarz Cutoff:          1E-12
    Fitting Condition:       1E-12

   => Auxiliary Basis Set <=

  Basis Set: 
    Number of shells: 426
    Number of basis function: 1341
    Number of Cartesian functions: 1341
    Spherical Harmonics?: false
    Max angular momentum: 3

  Minimum eigenvalue in the overlap matrix is 2.5362451935E-03.
  Using Symmetric Orthogonalization.
  SCF Guess: Core (One-Electron) Hamiltonian.

  ==> Iterations <==

                           Total Energy        Delta E     RMS |[F,P]|

   @DF-RHF iter   1:  -329.64867056761386   -3.29649e+02   5.91880e-02 
   @DF-RHF iter   2:     4.50315915288343    3.34152e+02   7.60962e-02 DIIS
   @DF-RHF iter   3:  -209.76850060174070   -2.14272e+02   7.64957e-02 DIIS
   @DF-RHF iter   4:  -372.90615652682118   -1.63138e+02   4.35283e-02 DIIS
   @DF-RHF iter   5:  -242.26346941010502    1.30643e+02   6.54648e-02 DIIS
   @DF-RHF iter   6:  -463.06956681727411   -2.20806e+02   2.92414e-02 DIIS
   @DF-RHF iter   7:  -499.98018733054050   -3.69106e+01   7.19217e-03 DIIS
   @DF-RHF iter   8:  -500.86128487156293   -8.81098e-01   3.16218e-03 DIIS
   @DF-RHF iter   9:  -501.00900596980432   -1.47721e-01   1.03375e-03 DIIS
   @DF-RHF iter  10:  -501.03192216301341   -2.29162e-02   3.89044e-04 DIIS
   @DF-RHF iter  11:  -501.03581949975501   -3.89734e-03   1.52684e-04 DIIS
   @DF-RHF iter  12:  -501.03652052395955   -7.01024e-04   4.97623e-05 DIIS
   @DF-RHF iter  13:  -501.03658079346587   -6.02695e-05   1.85709e-05 DIIS
   @DF-RHF iter  14:  -501.03659249006796   -1.16966e-05   4.17172e-06 DIIS
   @DF-RHF iter  15:  -501.03659307506427   -5.84996e-07   1.43520e-06 DIIS
   @DF-RHF iter  16:  -501.03659315077994   -7.57157e-08   3.95484e-07 DIIS

  ==> Post-Iterations <==

    Orbital Energies (a.u.)
    -----------------------

    Doubly Occupied:                                                      

       1A    -20.603297     2A    -20.545120     3A    -11.371918  
       4A    -11.280613     5A    -11.234631     6A    -11.219157  
       7A    -11.216419     8A    -11.215133     9A    -11.214798  
      10A    -11.214073    11A    -11.207852    12A     -1.469000  
      13A     -1.362445    14A     -1.101570    15A     -1.067117  
      16A     -1.013283    17A     -0.974440    18A     -0.931430  
      19A     -0.872040    20A     -0.814170    21A     -0.769921  
      22A     -0.755812    23A     -0.701647    24A     -0.682009  
      25A     -0.672149    26A     -0.645274    27A     -0.630454  
      28A     -0.625569    29A     -0.590942    30A     -0.578744  
      31A     -0.566118    32A     -0.544959    33A     -0.537466  
      34A     -0.530676    35A     -0.523311    36A     -0.506118  
      37A     -0.491195    38A     -0.483917    39A     -0.476720  
      40A     -0.456907    41A     -0.454252    42A     -0.447739  
      43A     -0.440994    44A     -0.436784  

    Virtual:                                                              

      45A      0.199288    46A      0.220628    47A      0.245536  
      48A      0.255397    49A      0.264189    50A      0.264880  
      51A      0.291055    52A      0.299763    53A      0.306345  
      54A      0.312882    55A      0.317440    56A      0.319478  
      57A      0.324975    58A      0.327240    59A      0.338473  
      60A      0.344849    61A      0.358818    62A      0.371215  
      63A      0.379462    64A      0.390919    65A      0.399563  
      66A      0.403544    67A      0.429880    68A      0.439444  
      69A      0.446796    70A      0.483422    71A      0.495416  
      72A      0.539770    73A      0.584198    74A      0.705634  
      75A      0.723042    76A      0.727218    77A      0.735925  
      78A      0.738172    79A      0.739732    80A      0.762927  
      81A      0.770746    82A      0.785488    83A      0.801810  
      84A      0.830685    85A      0.855313    86A      0.876848  
      87A      0.881271    88A      0.917873    89A      0.934739  
      90A      0.952293    91A      0.963162    92A      0.979612  
      93A      0.983238    94A      0.998706    95A      1.026116  
      96A      1.032955    97A      1.073589    98A      1.111697  
      99A      1.118971   100A      1.127441   101A      1.136729  
     102A      1.138517   103A      1.145314   104A      1.155076  
     105A      1.168125   106A      1.168854   107A      1.172616  
     108A      1.183499   109A      1.192065   110A      1.203275  
     111A      1.208131   112A      1.218430   113A      1.231735  
     114A      1.237800   115A      1.244623   116A      1.250485  
     117A      1.267691   118A      1.279956   119A      1.295005  
     120A      1.299896   121A      1.316790   122A      1.321094  
     123A      1.377375   124A      1.390004   125A      1.423366  
     126A      1.464367   127A      1.556465   128A      1.587006  
     129A      1.642054   130A      1.665210   131A      1.694951  
     132A      1.729117   133A      1.751901   134A      1.772471  
     135A      1.802788   136A      1.844886   137A      1.863974  
     138A      1.888764   139A      1.897579   140A      1.954393  
     141A      1.981459   142A      2.013436   143A      2.021119  
     144A      2.030639   145A      2.093894   146A      2.124363  
     147A      2.152180   148A      2.166095   149A      2.204545  
     150A      2.215241   151A      2.263479   152A      2.268088  
     153A      2.285547   154A      2.309009   155A      2.319338  
     156A      2.325102   157A      2.351809   158A      2.357207  
     159A      2.376572   160A      2.399893   161A      2.438368  
     162A      2.444198   163A      2.475213   164A      2.488538  
     165A      2.533251   166A      2.552405   167A      2.612914  
     168A      2.649644   169A      2.668520   170A      2.673037  
     171A      2.687811   172A      2.711936   173A      2.731482  
     174A      2.756316   175A      2.786059   176A      2.793238  
     177A      2.825010   178A      2.846475   179A      2.909756  
     180A      2.913441   181A      2.977139   182A      3.017705  
     183A      3.050965   184A      3.067681   185A      3.100002  
     186A      3.163083   187A      3.184876   188A      3.349985  
     189A      3.451102   190A      3.581303   191A      4.417003  
     192A      4.544541   193A      4.591138   194A      4.628709  
     195A      4.685228   196A      4.737918   197A      4.804974  
     198A      4.844099   199A      4.881120   200A      4.972770  
     201A      5.040407  

    Final Occupation by Irrep:
              A 
    DOCC [    44 ]

  Energy converged.

  @DF-RHF Final Energy:  -501.03659315077994

   => Energetics <=

    Nuclear Repulsion Energy =            627.1046594987883509
    One-Electron Energy =               -1925.3261186742158770
    Two-Electron Energy =                 797.1848660246455438
    DFT Exchange-Correlation Energy =       0.0000000000000000
    Empirical Dispersion Energy =           0.0000000000000000
    PCM Polarization Energy =               0.0000000000000000
    EFP Energy =                            0.0000000000000000
    Total Energy =                       -501.0365931507819823

    Alert: EFP and PCM quantities not currently incorporated into SCF psivars.

Properties will be evaluated at   0.000000,   0.000000,   0.000000 Bohr
  ==> Properties <==


Properties computed using the SCF density matrix

  Nuclear Dipole Moment: (a.u.)
     X:   -16.5868      Y:     3.0099      Z:    -0.6457

  Electronic Dipole Moment: (a.u.)
     X:    16.4150      Y:    -3.6172      Z:     0.9756

  Dipole Moment: (a.u.)
     X:    -0.1718      Y:    -0.6073      Z:     0.3299     Total:     0.7122

  Dipole Moment: (Debye)
     X:    -0.4368      Y:    -1.5437      Z:     0.8384     Total:     1.8101


  Saving occupied orbitals to File 180.

*** tstop() called on cx1-3-14-1.cx1.hpc.ic.ac.uk at Tue Jul  5 17:25:44 2016
Module time:
	user time   =      54.39 seconds =       0.91 minutes
	system time =       0.44 seconds =       0.01 minutes
	total time  =         55 seconds =       0.92 minutes
Total time:
	user time   =      54.39 seconds =       0.91 minutes
	system time =       0.44 seconds =       0.01 minutes
	total time  =         55 seconds =       0.92 minutes


Properties will be evaluated at   0.000000,   0.000000,   0.000000 Bohr

Properties computed using the  density matrix

  Nuclear Dipole Moment: (a.u.)
     X:   -16.5868      Y:     3.0099      Z:    -0.6457

  Electronic Dipole Moment: (a.u.)
     X:    16.4150      Y:    -3.6172      Z:     0.9756

  Dipole Moment: (a.u.)
     X:    -0.1718      Y:    -0.6073      Z:     0.3299     Total:     0.7122

  Dipole Moment: (Debye)
     X:    -0.4368      Y:    -1.5437      Z:     0.8384     Total:     1.8101

  Quadrupole Moment: (Debye Ang)
    XX:   -66.2391     YY:   -71.1377     ZZ:   -70.3265
    XY:    -7.1039     XZ:     2.5850     YZ:     2.1407

  Traceless Quadrupole Moment: (Debye Ang)
    XX:     2.9953     YY:    -1.9033     ZZ:    -1.0920
    XY:    -7.1039     XZ:     2.5850     YZ:     2.1407

  Mulliken Charges: (a.u.)
   Center  Symbol    Alpha    Beta     Spin     Total
       1     O     4.28604  4.28604  0.00000 -0.57209
       2     C     2.60479  2.60479  0.00000  0.79042
       3     C     3.20971  3.20971  0.00000 -0.41942
       4     O     4.30748  4.30748  0.00000 -0.61497
       5     C     3.15277  3.15277  0.00000 -0.30554
       6     H     0.39882  0.39882  0.00000  0.20236
       7     H     0.40120  0.40120  0.00000  0.19761
       8     C     3.16132  3.16132  0.00000 -0.32264
       9     H     0.41340  0.41340  0.00000  0.17319
      10     H     0.40887  0.40887  0.00000  0.18227
      11     C     3.16352  3.16352  0.00000 -0.32704
      12     H     0.41408  0.41408  0.00000  0.17185
      13     H     0.42373  0.42373  0.00000  0.15255
      14     C     3.14967  3.14967  0.00000 -0.29934
      15     H     0.41996  0.41996  0.00000  0.16007
      16     H     0.42034  0.42034  0.00000  0.15932
      17     C     3.16012  3.16012  0.00000 -0.32023
      18     H     0.42209  0.42209  0.00000  0.15583
      19     H     0.42142  0.42142  0.00000  0.15715
      20     C     3.24362  3.24362  0.00000 -0.48724
      21     H     0.41906  0.41906  0.00000  0.16189
      22     H     0.42054  0.42054  0.00000  0.15892
      23     H     0.41839  0.41839  0.00000  0.16322
      24     H     0.42146  0.42146  0.00000  0.15708
      25     H     0.41847  0.41847  0.00000  0.16307
      26     C     3.09240  3.09240  0.00000 -0.18481
      27     H     0.40909  0.40909  0.00000  0.18183
      28     H     0.40852  0.40852  0.00000  0.18296
      29     H     0.40914  0.40914  0.00000  0.18172

   Total alpha = 44.00000, Total beta = 44.00000, Total charge = -0.00000


*** PSI4 exiting successfully. Buy a developer a beer!
