    -----------------------------------------------------------------------
          Psi4: An Open-Source Ab Initio Electronic Structure Package
                              Psi4 (no tag) Driver

                          Git: Rev {detached?}  

    J. M. Turney, A. C. Simmonett, R. M. Parrish, E. G. Hohenstein,
    F. A. Evangelista, J. T. Fermann, B. J. Mintz, L. A. Burns, J. J. Wilke,
    M. L. Abrams, N. J. Russ, M. L. Leininger, C. L. Janssen, E. T. Seidl,
    W. D. Allen, H. F. Schaefer, R. A. King, E. F. Valeev, C. D. Sherrill,
    and T. D. Crawford, WIREs Comput. Mol. Sci. 2, 556-565 (2012)
    (doi: 10.1002/wcms.93)

                         Additional Contributions by
    A. E. DePrince, M. Saitow, U. Bozkaya, A. Yu. Sokolov
    -----------------------------------------------------------------------


    Psi4 started on: Tue Jul  5 16:30:12 2016

    Process ID:  16426
    PSI4DATADIR: /export131/home/mjharvey/miniconda3/share
    Memory level set to 256.000 MB

  ==> Input File <==

--------------------------------------------------------------------------
set {
	reference rhf
	basis 6-31G*
}


set_num_threads( 1 )
memory 2 gb

molecule MOL {
0 1

O	 -0.682937	 1.318834	 -0.186099
C	 -0.860635	 0.152188	 -0.042321
C	 -2.173363	 -0.477127	 0.338347
O	 0.083258	 -0.765189	 -0.202595
H	 -2.477673	 -1.180929	 -0.427595
H	 -2.923125	 0.290956	 0.455536
H	 -2.058825	 -1.029004	 1.264191
C	 1.391937	 -0.334737	 -0.569838
C	 1.348752	 0.670632	 -1.705627
H	 1.988606	 -1.195683	 -0.830413
H	 1.792033	 0.112842	 0.328547
H	 2.350353	 1.035765	 -1.911060
H	 0.960692	 0.216265	 -2.608582
H	 0.724778	 1.517654	 -1.441760

	symmetry c1
}
set optking {
	frozen_dihedral = ("
		8 4 2 1
	")
}

ee = energy('scf')
oeprop('DIPOLE', 'QUADRUPOLE', 'MULLIKEN_CHARGES')
f=open( 'psi4out.xyz', 'w' )
f.write( "14  " )
f.write( str(ee) + "\n" )
f.write( MOL.save_string_xyz() )
f.close()
--------------------------------------------------------------------------

  Memory set to   2.000 GiB by Python script.

*** tstart() called on cx1-1-2-4.cx1.hpc.ic.ac.uk
*** at Tue Jul  5 16:30:13 2016


         ---------------------------------------------------------
                                   SCF
            by Justin Turney, Rob Parrish, and Andy Simmonett
                              RHF Reference
                        1 Threads,   2000 MiB Core
         ---------------------------------------------------------

  ==> Geometry <==

    Molecular point group: c1
    Full point group: C1

    Geometry (in Angstrom), charge = 0, multiplicity = 1:

       Center              X                  Y                   Z               Mass       
    ------------   -----------------  -----------------  -----------------  -----------------
           O         -0.538115429482     1.219427020560     0.213458352928    15.994914619560
           C         -0.715813429482     0.052781020560     0.357236352928    12.000000000000
           C         -2.028541429482    -0.576533979440     0.737904352928    12.000000000000
           O          0.228079570518    -0.864595979440     0.196962352928    15.994914619560
           H         -2.332851429482    -1.280335979440    -0.028037647072     1.007825032070
           H         -2.778303429482     0.191549020560     0.855093352928     1.007825032070
           H         -1.914003429482    -1.128410979440     1.663748352928     1.007825032070
           C          1.536758570518    -0.434143979440    -0.170280647072    12.000000000000
           C          1.493573570518     0.571225020560    -1.306069647072    12.000000000000
           H          2.133427570518    -1.295089979440    -0.430855647072     1.007825032070
           H          1.936854570518     0.013435020560     0.728104352928     1.007825032070
           H          2.495174570518     0.936358020560    -1.511502647072     1.007825032070
           H          1.105513570518     0.116858020560    -2.209024647072     1.007825032070
           H          0.869599570518     1.418247020560    -1.042202647072     1.007825032070

  Running in c1 symmetry.

  Rotational constants: A =      0.25069  B =      0.08832  C =      0.07207 [cm^-1]
  Rotational constants: A =   7515.54044  B =   2647.68482  C =   2160.52064 [MHz]
  Nuclear repulsion =  252.904648736993636

  Charge       = 0
  Multiplicity = 1
  Electrons    = 48
  Nalpha       = 24
  Nbeta        = 24

  ==> Algorithm <==

  SCF Algorithm Type is DF.
  DIIS enabled.
  MOM disabled.
  Fractional occupation disabled.
  Guess Type is CORE.
  Energy threshold   = 1.00e-06
  Density threshold  = 1.00e-06
  Integral threshold = 0.00e+00

  ==> Primary Basis <==

  Basis Set: 6-31G*
    Number of shells: 52
    Number of basis function: 106
    Number of Cartesian functions: 106
    Spherical Harmonics?: false
    Max angular momentum: 2

  ==> Pre-Iterations <==

   -------------------------------------------------------
    Irrep   Nso     Nmo     Nalpha   Nbeta   Ndocc  Nsocc
   -------------------------------------------------------
     A        106     106       0       0       0       0
   -------------------------------------------------------
    Total     106     106      24      24      24       0
   -------------------------------------------------------

 OEINTS: Overlap, kinetic, potential, dipole, and quadrupole integrals
         stored in file 35.

  ==> Integral Setup <==

  ==> DFJK: Density-Fitted J/K Matrices <==

    J tasked:                  Yes
    K tasked:                  Yes
    wK tasked:                  No
    OpenMP threads:              1
    Integrals threads:           1
    Memory (MB):              1430
    Algorithm:                Core
    Integral Cache:           NONE
    Schwarz Cutoff:          1E-12
    Fitting Condition:       1E-12

   => Auxiliary Basis Set <=

  Basis Set: 
    Number of shells: 216
    Number of basis function: 686
    Number of Cartesian functions: 686
    Spherical Harmonics?: false
    Max angular momentum: 3

  Minimum eigenvalue in the overlap matrix is 3.7970645070E-03.
  Using Symmetric Orthogonalization.
  SCF Guess: Core (One-Electron) Hamiltonian.

  ==> Iterations <==

                           Total Energy        Delta E     RMS |[F,P]|

   @DF-RHF iter   1:  -238.84221644422138   -2.38842e+02   8.26349e-02 
   @DF-RHF iter   2:  -227.01608230576085    1.18261e+01   6.46200e-02 DIIS
   @DF-RHF iter   3:  -276.57391933494910   -4.95578e+01   5.58335e-02 DIIS
   @DF-RHF iter   4:  -302.53596244896664   -2.59620e+01   1.70150e-02 DIIS
   @DF-RHF iter   5:  -302.47783475717245    5.81277e-02   1.82552e-02 DIIS
   @DF-RHF iter   6:  -305.83641927066287   -3.35858e+00   1.85759e-03 DIIS
   @DF-RHF iter   7:  -305.85639982798614   -1.99806e-02   7.49982e-04 DIIS
   @DF-RHF iter   8:  -305.85896411020838   -2.56428e-03   4.07794e-04 DIIS
   @DF-RHF iter   9:  -305.85980802387201   -8.43914e-04   1.85096e-04 DIIS
   @DF-RHF iter  10:  -305.86000068377018   -1.92660e-04   7.83646e-05 DIIS
   @DF-RHF iter  11:  -305.86004296068484   -4.22769e-05   2.22154e-05 DIIS
   @DF-RHF iter  12:  -305.86004640102510   -3.44034e-06   8.45787e-06 DIIS
   @DF-RHF iter  13:  -305.86004698162139   -5.80596e-07   2.00468e-06 DIIS
   @DF-RHF iter  14:  -305.86004704661457   -6.49932e-08   7.92479e-07 DIIS

  ==> Post-Iterations <==

    Orbital Energies (a.u.)
    -----------------------

    Doubly Occupied:                                                      

       1A    -20.602161     2A    -20.544605     3A    -11.378960  
       4A    -11.285791     5A    -11.234324     6A    -11.201078  
       7A     -1.470611     8A     -1.366017     9A     -1.054123  
      10A     -0.994105    11A     -0.883801    12A     -0.758963  
      13A     -0.703983    14A     -0.684676    15A     -0.663079  
      16A     -0.611372    17A     -0.587232    18A     -0.568896  
      19A     -0.549826    20A     -0.538524    21A     -0.505361  
      22A     -0.495316    23A     -0.449824    24A     -0.424331  

    Virtual:                                                              

      25A      0.193699    26A      0.248881    27A      0.264030  
      28A      0.292584    29A      0.302843    30A      0.310930  
      31A      0.323379    32A      0.338687    33A      0.348495  
      34A      0.384032    35A      0.406306    36A      0.435025  
      37A      0.505908    38A      0.560209    39A      0.716767  
      40A      0.720762    41A      0.753992    42A      0.754441  
      43A      0.776941    44A      0.803955    45A      0.813226  
      46A      0.857828    47A      0.912388    48A      0.952293  
      49A      0.966190    50A      1.004722    51A      1.076027  
      52A      1.103177    53A      1.129389    54A      1.143947  
      55A      1.170395    56A      1.181569    57A      1.191385  
      58A      1.212014    59A      1.227022    60A      1.278326  
      61A      1.283206    62A      1.296188    63A      1.361843  
      64A      1.402368    65A      1.442918    66A      1.536825  
      67A      1.603335    68A      1.659046    69A      1.729367  
      70A      1.742921    71A      1.786422    72A      1.833435  
      73A      1.947977    74A      1.953820    75A      2.044673  
      76A      2.096583    77A      2.107077    78A      2.170681  
      79A      2.213430    80A      2.236739    81A      2.264872  
      82A      2.322811    83A      2.352488    84A      2.397215  
      85A      2.489703    86A      2.532148    87A      2.562087  
      88A      2.600800    89A      2.677767    90A      2.709032  
      91A      2.732164    92A      2.759545    93A      2.811246  
      94A      2.900429    95A      3.003134    96A      3.076879  
      97A      3.158892    98A      3.359910    99A      3.409742  
     100A      3.555456   101A      4.438543   102A      4.522139  
     103A      4.621258   104A      4.666664   105A      4.815727  
     106A      4.920568  

    Final Occupation by Irrep:
              A 
    DOCC [    24 ]

  Energy converged.

  @DF-RHF Final Energy:  -305.86004704661457

   => Energetics <=

    Nuclear Repulsion Energy =            252.9046487369936358
    One-Electron Energy =                -918.4158515589108447
    Two-Electron Energy =                 359.6511557753029820
    DFT Exchange-Correlation Energy =       0.0000000000000000
    Empirical Dispersion Energy =           0.0000000000000000
    PCM Polarization Energy =               0.0000000000000000
    EFP Energy =                            0.0000000000000000
    Total Energy =                       -305.8600470466142269

    Alert: EFP and PCM quantities not currently incorporated into SCF psivars.

Properties will be evaluated at   0.000000,   0.000000,   0.000000 Bohr
  ==> Properties <==


Properties computed using the SCF density matrix

  Nuclear Dipole Moment: (a.u.)
     X:     1.4192      Y:    -0.9614      Z:    -1.8492

  Electronic Dipole Moment: (a.u.)
     X:    -1.3494      Y:     0.2689      Z:     1.8926

  Dipole Moment: (a.u.)
     X:     0.0697      Y:    -0.6925      Z:     0.0434     Total:     0.6974

  Dipole Moment: (Debye)
     X:     0.1773      Y:    -1.7603      Z:     0.1103     Total:     1.7726


  Saving occupied orbitals to File 180.

*** tstop() called on cx1-1-2-4.cx1.hpc.ic.ac.uk at Tue Jul  5 16:30:19 2016
Module time:
	user time   =       5.65 seconds =       0.09 minutes
	system time =       0.04 seconds =       0.00 minutes
	total time  =          6 seconds =       0.10 minutes
Total time:
	user time   =       5.65 seconds =       0.09 minutes
	system time =       0.04 seconds =       0.00 minutes
	total time  =          6 seconds =       0.10 minutes


Properties will be evaluated at   0.000000,   0.000000,   0.000000 Bohr

Properties computed using the  density matrix

  Nuclear Dipole Moment: (a.u.)
     X:     1.4192      Y:    -0.9614      Z:    -1.8492

  Electronic Dipole Moment: (a.u.)
     X:    -1.3494      Y:     0.2689      Z:     1.8926

  Dipole Moment: (a.u.)
     X:     0.0697      Y:    -0.6925      Z:     0.0434     Total:     0.6974

  Dipole Moment: (Debye)
     X:     0.1773      Y:    -1.7603      Z:     0.1103     Total:     1.7726

  Quadrupole Moment: (Debye Ang)
    XX:   -31.3792     YY:   -41.0936     ZZ:   -35.6918
    XY:     1.5465     XZ:    -0.9672     YZ:    -0.2483

  Traceless Quadrupole Moment: (Debye Ang)
    XX:     4.6756     YY:    -5.0387     ZZ:     0.3631
    XY:     1.5465     XZ:    -0.9672     YZ:    -0.2483

  Mulliken Charges: (a.u.)
   Center  Symbol    Alpha    Beta     Spin     Total
       1     O     4.28805  4.28805  0.00000 -0.57609
       2     C     2.61373  2.61373  0.00000  0.77254
       3     C     3.28137  3.28137  0.00000 -0.56275
       4     O     4.30992  4.30992  0.00000 -0.61984
       5     H     0.40001  0.40001  0.00000  0.19998
       6     H     0.39712  0.39712  0.00000  0.20575
       7     H     0.39982  0.39982  0.00000  0.20035
       8     C     3.00200  3.00200  0.00000 -0.00399
       9     C     3.27607  3.27607  0.00000 -0.55214
      10     H     0.40676  0.40676  0.00000  0.18647
      11     H     0.41356  0.41356  0.00000  0.17288
      12     H     0.42155  0.42155  0.00000  0.15691
      13     H     0.42025  0.42025  0.00000  0.15951
      14     H     0.36980  0.36980  0.00000  0.26041

   Total alpha = 24.00000, Total beta = 24.00000, Total charge =  0.00000


*** PSI4 exiting successfully. Buy a developer a beer!
