    -----------------------------------------------------------------------
          Psi4: An Open-Source Ab Initio Electronic Structure Package
                              Psi4 (no tag) Driver

                          Git: Rev {detached?}  

    J. M. Turney, A. C. Simmonett, R. M. Parrish, E. G. Hohenstein,
    F. A. Evangelista, J. T. Fermann, B. J. Mintz, L. A. Burns, J. J. Wilke,
    M. L. Abrams, N. J. Russ, M. L. Leininger, C. L. Janssen, E. T. Seidl,
    W. D. Allen, H. F. Schaefer, R. A. King, E. F. Valeev, C. D. Sherrill,
    and T. D. Crawford, WIREs Comput. Mol. Sci. 2, 556-565 (2012)
    (doi: 10.1002/wcms.93)

                         Additional Contributions by
    A. E. DePrince, M. Saitow, U. Bozkaya, A. Yu. Sokolov
    -----------------------------------------------------------------------


    Psi4 started on: Tue Jul  5 16:29:31 2016

    Process ID:  10695
    PSI4DATADIR: /export131/home/mjharvey/miniconda3/share
    Memory level set to 256.000 MB

  ==> Input File <==

--------------------------------------------------------------------------
set {
	reference rhf
	basis 6-31G*
}


set_num_threads( 1 )
memory 2 gb

molecule MOL {
0 1

H	 0.144686	 1.409405	 -1.840276
C	 0.557503	 1.679937	 -0.867300
N	 0.538815	 0.649616	 0.000000
O	 0.969378	 2.778664	 -0.638463
C	 1.521968	 -0.411503	 0.000000
H	 -0.192644	 0.624219	 0.672761
H	 2.150599	 -0.357004	 -0.881901
H	 0.999455	 -1.354525	 0.000000
H	 2.150599	 -0.357004	 0.881901

	symmetry c1
}
set optking {
	frozen_dihedral = ("
		6 3 5 7
	")
}

ee = energy('scf')
oeprop('DIPOLE', 'QUADRUPOLE', 'MULLIKEN_CHARGES')
f=open( 'psi4out.xyz', 'w' )
f.write( "9  " )
f.write( str(ee) + "\n" )
f.write( MOL.save_string_xyz() )
f.close()
--------------------------------------------------------------------------

  Memory set to   2.000 GiB by Python script.

*** tstart() called on cx1-1-4-3.cx1.hpc.ic.ac.uk
*** at Tue Jul  5 16:29:31 2016


         ---------------------------------------------------------
                                   SCF
            by Justin Turney, Rob Parrish, and Andy Simmonett
                              RHF Reference
                        1 Threads,   2000 MiB Core
         ---------------------------------------------------------

  ==> Geometry <==

    Molecular point group: c1
    Full point group: C1

    Geometry (in Angstrom), charge = 0, multiplicity = 1:

       Center              X                  Y                   Z               Mass       
    ------------   -----------------  -----------------  -----------------  -----------------
           H         -0.758095839322     0.245270512570    -1.471077531143     1.007825032070
           C         -0.345278839322     0.515802512570    -0.498101531143    12.000000000000
           N         -0.363966839322    -0.514518487430     0.369198468857    14.003074004780
           O          0.066596160678     1.614529512570    -0.269264531143    15.994914619560
           C          0.619186160678    -1.575637487430     0.369198468857    12.000000000000
           H         -1.095425839322    -0.539915487430     1.041959468857     1.007825032070
           H          1.247817160678    -1.521138487430    -0.512702531143     1.007825032070
           H          0.096673160678    -2.518659487430     0.369198468857     1.007825032070
           H          1.247817160678    -1.521138487430     1.251099468857     1.007825032070

  Running in c1 symmetry.

  Rotational constants: A =      0.96573  B =      0.16068  C =      0.15482 [cm^-1]
  Rotational constants: A =  28952.00302  B =   4817.00572  C =   4641.50553 [MHz]
  Nuclear repulsion =  120.893275634595938

  Charge       = 0
  Multiplicity = 1
  Electrons    = 32
  Nalpha       = 16
  Nbeta        = 16

  ==> Algorithm <==

  SCF Algorithm Type is DF.
  DIIS enabled.
  MOM disabled.
  Fractional occupation disabled.
  Guess Type is CORE.
  Energy threshold   = 1.00e-06
  Density threshold  = 1.00e-06
  Integral threshold = 0.00e+00

  ==> Primary Basis <==

  Basis Set: 6-31G*
    Number of shells: 34
    Number of basis function: 70
    Number of Cartesian functions: 70
    Spherical Harmonics?: false
    Max angular momentum: 2

  ==> Pre-Iterations <==

   -------------------------------------------------------
    Irrep   Nso     Nmo     Nalpha   Nbeta   Ndocc  Nsocc
   -------------------------------------------------------
     A         70      70       0       0       0       0
   -------------------------------------------------------
    Total      70      70      16      16      16       0
   -------------------------------------------------------

 OEINTS: Overlap, kinetic, potential, dipole, and quadrupole integrals
         stored in file 35.

  ==> Integral Setup <==

  ==> DFJK: Density-Fitted J/K Matrices <==

    J tasked:                  Yes
    K tasked:                  Yes
    wK tasked:                  No
    OpenMP threads:              1
    Integrals threads:           1
    Memory (MB):              1430
    Algorithm:                Core
    Integral Cache:           NONE
    Schwarz Cutoff:          1E-12
    Fitting Condition:       1E-12

   => Auxiliary Basis Set <=

  Basis Set: 
    Number of shells: 141
    Number of basis function: 449
    Number of Cartesian functions: 449
    Spherical Harmonics?: false
    Max angular momentum: 3

  Minimum eigenvalue in the overlap matrix is 5.1104226251E-03.
  Using Symmetric Orthogonalization.
  SCF Guess: Core (One-Electron) Hamiltonian.

  ==> Iterations <==

                           Total Energy        Delta E     RMS |[F,P]|

   @DF-RHF iter   1:  -166.54150325463402   -1.66542e+02   9.40784e-02 
   @DF-RHF iter   2:  -128.68426148494802    3.78572e+01   8.23550e-02 DIIS
   @DF-RHF iter   3:  -189.10253796738382   -6.04183e+01   5.74574e-02 DIIS
   @DF-RHF iter   4:  -207.22473111630441   -1.81222e+01   1.77729e-02 DIIS
   @DF-RHF iter   5:  -207.83052809295756   -6.05797e-01   6.02343e-03 DIIS
   @DF-RHF iter   6:  -207.90801890487583   -7.74908e-02   1.62523e-03 DIIS
   @DF-RHF iter   7:  -207.91622669591735   -8.20779e-03   6.56595e-04 DIIS
   @DF-RHF iter   8:  -207.91764938807356   -1.42269e-03   2.89497e-04 DIIS
   @DF-RHF iter   9:  -207.91787938428629   -2.29996e-04   1.11727e-04 DIIS
   @DF-RHF iter  10:  -207.91793035239735   -5.09681e-05   3.21441e-05 DIIS
   @DF-RHF iter  11:  -207.91793510796279   -4.75557e-06   9.48362e-06 DIIS
   @DF-RHF iter  12:  -207.91793581341901   -7.05456e-07   4.70467e-06 DIIS
   @DF-RHF iter  13:  -207.91793602084741   -2.07428e-07   1.41395e-06 DIIS
   @DF-RHF iter  14:  -207.91793604927742   -2.84300e-08   5.38833e-07 DIIS

  ==> Post-Iterations <==

    Orbital Energies (a.u.)
    -----------------------

    Doubly Occupied:                                                      

       1A    -20.560516     2A    -15.550952     3A    -11.348581  
       4A    -11.266771     5A     -1.404696     6A     -1.225531  
       7A     -0.958251     8A     -0.824103     9A     -0.712864  
      10A     -0.668112    11A     -0.640014    12A     -0.598728  
      13A     -0.565761    14A     -0.508416    15A     -0.438916  
      16A     -0.376734  

    Virtual:                                                              

      17A      0.156480    18A      0.241830    19A      0.265669  
      20A      0.291897    21A      0.311806    22A      0.323434  
      23A      0.377308    24A      0.448851    25A      0.580898  
      26A      0.710297    27A      0.751554    28A      0.780580  
      29A      0.783942    30A      0.890537    31A      0.956036  
      32A      0.986879    33A      1.038265    34A      1.079003  
      35A      1.087965    36A      1.114714    37A      1.148585  
      38A      1.189017    39A      1.193561    40A      1.221306  
      41A      1.261780    42A      1.300980    43A      1.315739  
      44A      1.428946    45A      1.533271    46A      1.718683  
      47A      1.780555    48A      1.843318    49A      1.968042  
      50A      2.032970    51A      2.137107    52A      2.160077  
      53A      2.232717    54A      2.277759    55A      2.394031  
      56A      2.429036    57A      2.454978    58A      2.607912  
      59A      2.631755    60A      2.718567    61A      2.875692  
      62A      2.967971    63A      3.054853    64A      3.195926  
      65A      3.300152    66A      3.385890    67A      4.228188  
      68A      4.376247    69A      4.599996    70A      4.713193  

    Final Occupation by Irrep:
              A 
    DOCC [    16 ]

  Energy converged.

  @DF-RHF Final Energy:  -207.91793604927742

   => Energetics <=

    Nuclear Repulsion Energy =            120.8932756345959376
    One-Electron Energy =                -522.3245311222613054
    Two-Electron Energy =                 193.5133194383879811
    DFT Exchange-Correlation Energy =       0.0000000000000000
    Empirical Dispersion Energy =           0.0000000000000000
    PCM Polarization Energy =               0.0000000000000000
    EFP Energy =                            0.0000000000000000
    Total Energy =                       -207.9179360492773583

    Alert: EFP and PCM quantities not currently incorporated into SCF psivars.

Properties will be evaluated at   0.000000,   0.000000,   0.000000 Bohr
  ==> Properties <==


Properties computed using the SCF density matrix

  Nuclear Dipole Moment: (a.u.)
     X:     0.6940      Y:    -5.4802      Z:     0.6337

  Electronic Dipole Moment: (a.u.)
     X:    -1.0508      Y:     4.1898      Z:    -0.5753

  Dipole Moment: (a.u.)
     X:    -0.3568      Y:    -1.2904      Z:     0.0584     Total:     1.3401

  Dipole Moment: (Debye)
     X:    -0.9069      Y:    -3.2798      Z:     0.1484     Total:     3.4061


  Saving occupied orbitals to File 180.

*** tstop() called on cx1-1-4-3.cx1.hpc.ic.ac.uk at Tue Jul  5 16:29:34 2016
Module time:
	user time   =       2.38 seconds =       0.04 minutes
	system time =       0.02 seconds =       0.00 minutes
	total time  =          3 seconds =       0.05 minutes
Total time:
	user time   =       2.38 seconds =       0.04 minutes
	system time =       0.02 seconds =       0.00 minutes
	total time  =          3 seconds =       0.05 minutes


Properties will be evaluated at   0.000000,   0.000000,   0.000000 Bohr

Properties computed using the  density matrix

  Nuclear Dipole Moment: (a.u.)
     X:     0.6940      Y:    -5.4802      Z:     0.6337

  Electronic Dipole Moment: (a.u.)
     X:    -1.0508      Y:     4.1898      Z:    -0.5753

  Dipole Moment: (a.u.)
     X:    -0.3568      Y:    -1.2904      Z:     0.0584     Total:     1.3401

  Dipole Moment: (Debye)
     X:    -0.9069      Y:    -3.2798      Z:     0.1484     Total:     3.4061

  Quadrupole Moment: (Debye Ang)
    XX:   -22.1258     YY:   -28.4982     ZZ:   -22.7747
    XY:    -1.4263     XZ:    -1.1008     YZ:    -0.3128

  Traceless Quadrupole Moment: (Debye Ang)
    XX:     2.3404     YY:    -4.0319     ZZ:     1.6915
    XY:    -1.4263     XZ:    -1.1008     YZ:    -0.3128

  Mulliken Charges: (a.u.)
   Center  Symbol    Alpha    Beta     Spin     Total
       1     H     0.43190  0.43190  0.00000  0.13621
       2     C     2.76571  2.76571  0.00000  0.46857
       3     N     3.89763  3.89763  0.00000 -0.79525
       4     O     4.22712  4.22712  0.00000 -0.45424
       5     C     3.13376  3.13376  0.00000 -0.26752
       6     H     0.30657  0.30657  0.00000  0.38686
       7     H     0.41102  0.41102  0.00000  0.17796
       8     H     0.41576  0.41576  0.00000  0.16848
       9     H     0.41053  0.41053  0.00000  0.17894

   Total alpha = 16.00000, Total beta = 16.00000, Total charge =  0.00000


*** PSI4 exiting successfully. Buy a developer a beer!
