
    -----------------------------------------------------------------------
          Psi4: An Open-Source Ab Initio Electronic Structure Package
                               Psi4 1.1 release

                         Git: Rev {HEAD} add49b9 


    R. M. Parrish, L. A. Burns, D. G. A. Smith, A. C. Simmonett,
    A. E. DePrince III, E. G. Hohenstein, U. Bozkaya, A. Yu. Sokolov,
    R. Di Remigio, R. M. Richard, J. F. Gonthier, A. M. James,
    H. R. McAlexander, A. Kumar, M. Saitow, X. Wang, B. P. Pritchard,
    P. Verma, H. F. Schaefer III, K. Patkowski, R. A. King, E. F. Valeev,
    F. A. Evangelista, J. M. Turney, T. D. Crawford, and C. D. Sherrill,
    J. Chem. Theory Comput. in press (2017).
    (doi: 10.1021/acs.jctc.7b00174)

    -----------------------------------------------------------------------


    Psi4 started on: Tuesday, 12 December 2017 12:39PM

    Process ID:   4492
    PSIDATADIR: /shared/raimis/opt/miniconda/envs/htmd/share/psi4
    Memory:     500.0 MiB
    Threads:    1
    
  ==> Input File <==

--------------------------------------------------------------------------
set_num_threads(1)
set_memory(4203741184)

set { reference rks }
set { basis cc-pVDZ }

molecule MOL {
    0 1
    noreorient
    nocom
    symmetry c1
    O    1.014300  -0.002300   0.060500
    O    2.462400  -0.107500  -0.002400
    H    0.821200  -0.823600  -0.430600
    H    2.496856  -1.065087  -0.188615
}

set optking { frozen_dihedral = (" 3 1 2 4 ") }

set optking { dynamic_level = 1 
 geom_maxiter = 250
 print_trajectory_xyz_file = True }

energy, wfn = optimize('B3LYP-D3', return_wfn=True)

import os
os.chdir(os.environ['HTMD_PSI4_WORKDIR'])

oeprop(wfn, 'DIPOLE', 'QUADRUPOLE', 'MULLIKEN_CHARGES')

with open('psi4out.xyz', 'w') as f:
    f.write('4 ' )
    f.write('%.12f\n' % energy)
    f.write(MOL.save_string_xyz())
--------------------------------------------------------------------------
  Threads set to 1 by Python driver.

  Memory set to   3.915 GiB by Python driver.
gradient() will perform analytic gradient computation.

*** tstart() called on computer06
*** at Tue Dec 12 12:39:04 2017

   => Loading Basis Set <=

    Name: CC-PVDZ
    Role: ORBITAL
    Keyword: BASIS
    atoms 1-2 entry O          line   190 file /shared/raimis/opt/miniconda/envs/htmd/share/psi4/basis/cc-pvdz.gbs 
    atoms 3-4 entry H          line    20 file /shared/raimis/opt/miniconda/envs/htmd/share/psi4/basis/cc-pvdz.gbs 


         ---------------------------------------------------------
                                   SCF
            by Justin Turney, Rob Parrish, and Andy Simmonett
                              RKS Reference
                        1 Threads,   4009 MiB Core
         ---------------------------------------------------------

  ==> Geometry <==

    Molecular point group: c1
    Full point group: C1

    Geometry (in Angstrom), charge = 0, multiplicity = 1:

       Center              X                  Y                   Z               Mass       
    ------------   -----------------  -----------------  -----------------  -----------------
           O          1.014300000000    -0.002300000000     0.060500000000    15.994914619560
           O          2.462400000000    -0.107500000000    -0.002400000000    15.994914619560
           H          0.821200000000    -0.823600000000    -0.430600000000     1.007825032070
           H          2.496856000000    -1.065087000000    -0.188615000000     1.007825032070

  Running in c1 symmetry.

  Rotational constants: A =      9.34933  B =      0.13937  C =      0.13746 [cm^-1]
  Rotational constants: A = 280285.80828  B =   4178.22724  C =   4121.09437 [MHz]
  Nuclear repulsion =   36.885821894663700

  Charge       = 0
  Multiplicity = 1
  Electrons    = 18
  Nalpha       = 9
  Nbeta        = 9

  ==> Algorithm <==

  SCF Algorithm Type is DF.
  DIIS enabled.
  MOM disabled.
  Fractional occupation disabled.
  Guess Type is SAD.
  Energy threshold   = 1.00e-08
  Density threshold  = 1.00e-08
  Integral threshold = 0.00e+00

  ==> Primary Basis <==

  Basis Set: CC-PVDZ
    Blend: CC-PVDZ
    Number of shells: 18
    Number of basis function: 38
    Number of Cartesian functions: 40
    Spherical Harmonics?: true
    Max angular momentum: 2

  ==> DFT Potential <==

   => B3LYP Composite Functional <= 

    B3LYP Hybrid-GGA Exchange-Correlation Functional (VWN1-RPA)

    P.J. Stephens et. al., J. Phys. Chem., 98, 11623-11627, 1994

    Points   =           5000
    Deriv    =              1
    GGA      =           TRUE
    Meta     =          FALSE

    X_LRC        =          FALSE
    X_Hybrid     =           TRUE
    X_Alpha      =   2.000000E-01
    X_Omega      =   0.000000E+00
    C_LRC        =          FALSE
    C_Hybrid     =          FALSE
    C_Alpha      =   0.000000E+00
    C_Omega      =   0.000000E+00

   => Exchange Functionals <=

    0.8000    B3_X
    0.2000      HF 

   => Correlation Functionals <=

    0.1900 VWN3RPA_C
    0.8100   LYP_C

   => Molecular Quadrature <=

    Radial Scheme    =       TREUTLER
    Pruning Scheme   =           FLAT
    Nuclear Scheme   =       TREUTLER

    BS radius alpha  =              1
    Pruning alpha    =              1
    Radial Points    =             75
    Spherical Points =            302
    Total Points     =          88272
    Total Blocks     =             87
    Max Points       =           4727
    Max Functions    =             38

   => -D3ZERO: Empirical Dispersion <=

    Grimme's -D3 (zero-damping) Dispersion Correction
    Grimme S.; Antony J.; Ehrlich S.; Krieg H. (2010), J. Chem. Phys., 132: 154104

        S6 =   1.000000E+00
        S8 =   1.703000E+00
       SR6 =   1.261000E+00
    ALPHA6 =   1.400000E+01

   => Loading Basis Set <=

    Name: (CC-PVDZ AUX)
    Role: JKFIT
    Keyword: DF_BASIS_SCF
    atoms 1-2 entry O          line   220 file /shared/raimis/opt/miniconda/envs/htmd/share/psi4/basis/cc-pvdz-jkfit.gbs 
    atoms 3-4 entry H          line    50 file /shared/raimis/opt/miniconda/envs/htmd/share/psi4/basis/cc-pvdz-jkfit.gbs 

  ==> Pre-Iterations <==

   -------------------------------------------------------
    Irrep   Nso     Nmo     Nalpha   Nbeta   Ndocc  Nsocc
   -------------------------------------------------------
     A         38      38       0       0       0       0
   -------------------------------------------------------
    Total      38      38       9       9       9       0
   -------------------------------------------------------

  ==> Integral Setup <==

  ==> DFJK: Density-Fitted J/K Matrices <==

    J tasked:                  Yes
    K tasked:                  Yes
    wK tasked:                  No
    OpenMP threads:              1
    Integrals threads:           1
    Memory (MB):              3006
    Algorithm:                Core
    Integral Cache:           NONE
    Schwarz Cutoff:          1E-12
    Fitting Condition:       1E-12

   => Auxiliary Basis Set <=

  Basis Set: (CC-PVDZ AUX)
    Blend: CC-PVDZ-JKFIT
    Number of shells: 66
    Number of basis function: 186
    Number of Cartesian functions: 212
    Spherical Harmonics?: true
    Max angular momentum: 3

  Minimum eigenvalue in the overlap matrix is 2.3912821600E-02.
  Using Symmetric Orthogonalization.

  SCF Guess: Superposition of Atomic Densities via on-the-fly atomic UHF.

  ==> Iterations <==

                           Total Energy        Delta E     RMS |[F,P]|

   @DF-RKS iter   0:  -151.53459298013561   -1.51535e+02   4.70943e-02 
   @DF-RKS iter   1:  -151.49854216189084    3.60508e-02   8.00897e-03 
   @DF-RKS iter   2:  -151.49194708847804    6.59507e-03   8.90740e-03 DIIS
   @DF-RKS iter   3:  -151.53482325869902   -4.28762e-02   7.69353e-04 DIIS
   @DF-RKS iter   4:  -151.53510689098752   -2.83632e-04   1.33312e-04 DIIS
   @DF-RKS iter   5:  -151.53510543065738    1.46033e-06   1.43558e-04 DIIS
   @DF-RKS iter   6:  -151.53511625250630   -1.08218e-05   3.89361e-06 DIIS
   @DF-RKS iter   7:  -151.53511626474673   -1.22404e-08   9.39341e-07 DIIS
   @DF-RKS iter   8:  -151.53511626529217   -5.45441e-10   1.09379e-07 DIIS
   @DF-RKS iter   9:  -151.53511626530715   -1.49782e-11   1.56558e-08 DIIS
   @DF-RKS iter  10:  -151.53511626530729   -1.42109e-13   2.45596e-09 DIIS

  ==> Post-Iterations <==

    Orbital Energies (a.u.)
    -----------------------

    Doubly Occupied:                                                      

       1A    -19.191996     2A    -19.191966     3A     -1.121863  
       4A     -0.887495     5A     -0.560441     6A     -0.428223  
       7A     -0.411075     8A     -0.365361     9A     -0.249276  

    Virtual:                                                              

      10A      0.010406    11A      0.020501    12A      0.132468  
      13A      0.547856    14A      0.573190    15A      0.862633  
      16A      0.864187    17A      0.919221    18A      0.929579  
      19A      0.993597    20A      1.057032    21A      1.157020  
      22A      1.250541    23A      1.322604    24A      1.537923  
      25A      1.627863    26A      1.796849    27A      2.014236  
      28A      2.102471    29A      2.312840    30A      2.375246  
      31A      2.628371    32A      2.862372    33A      2.916257  
      34A      2.995920    35A      3.185779    36A      3.483054  
      37A      3.550901    38A      3.822938  

    Final Occupation by Irrep:
              A 
    DOCC [     9 ]

  Energy converged.

  @DF-RKS Final Energy:  -151.53511626530729

   => Energetics <=

    Nuclear Repulsion Energy =             36.8858218946636995
    One-Electron Energy =                -281.6418047826862221
    Two-Electron Energy =                 107.6840634622231931
    DFT Exchange-Correlation Energy =     -14.4630174395079738
    Empirical Dispersion Energy =          -0.0001794000000000
    PCM Polarization Energy =               0.0000000000000000
    EFP Energy =                            0.0000000000000000
    Total Energy =                       -151.5351162653072947



Properties will be evaluated at   0.000000,   0.000000,   0.000000 Bohr

Properties computed using the SCF density matrix

  Nuclear Dipole Moment: (a.u.)
     X:    58.8303      Y:    -5.2290      Z:    -0.2918

  Electronic Dipole Moment: (a.u.)
     X:   -58.9314      Y:     4.0953      Z:    -0.1398

  Dipole Moment: (a.u.)
     X:    -0.1011      Y:    -1.1337      Z:    -0.4316     Total:     1.2173

  Dipole Moment: (Debye)
     X:    -0.2570      Y:    -2.8816      Z:    -1.0971     Total:     3.0941


*** tstop() called on computer06 at Tue Dec 12 12:39:09 2017
Module time:
	user time   =       5.32 seconds =       0.09 minutes
	system time =       0.06 seconds =       0.00 minutes
	total time  =          5 seconds =       0.08 minutes
Total time:
	user time   =       5.32 seconds =       0.09 minutes
	system time =       0.06 seconds =       0.00 minutes
	total time  =          5 seconds =       0.08 minutes

*** tstart() called on computer06
*** at Tue Dec 12 12:39:09 2017


         ------------------------------------------------------------
                                   SCF GRAD                          
                          Rob Parrish, Justin Turney,                
                       Andy Simmonett, and Alex Sokolov              
         ------------------------------------------------------------

  ==> Geometry <==

    Molecular point group: c1
    Full point group: C1

    Geometry (in Angstrom), charge = 0, multiplicity = 1:

       Center              X                  Y                   Z               Mass       
    ------------   -----------------  -----------------  -----------------  -----------------
           O          1.014300000000    -0.002300000000     0.060500000000    15.994914619560
           O          2.462400000000    -0.107500000000    -0.002400000000    15.994914619560
           H          0.821200000000    -0.823600000000    -0.430600000000     1.007825032070
           H          2.496856000000    -1.065087000000    -0.188615000000     1.007825032070

  Nuclear repulsion =   36.885821894663700

  ==> Basis Set <==

  Basis Set: CC-PVDZ
    Blend: CC-PVDZ
    Number of shells: 18
    Number of basis function: 38
    Number of Cartesian functions: 40
    Spherical Harmonics?: true
    Max angular momentum: 2

  ==> DFJKGrad: Density-Fitted SCF Gradients <==

    Gradient:                    1
    J tasked:                  Yes
    K tasked:                  Yes
    wK tasked:                  No
    OpenMP threads:              1
    Integrals threads:           1
    Memory (MB):              3006
    Schwarz Cutoff:          0E+00
    Fitting Condition:       1E-12

   => Auxiliary Basis Set <=

  Basis Set: (CC-PVDZ AUX)
    Blend: CC-PVDZ-JKFIT
    Number of shells: 66
    Number of basis function: 186
    Number of Cartesian functions: 212
    Spherical Harmonics?: true
    Max angular momentum: 3

  ==> DFT Potential <==

   => B3LYP Composite Functional <= 

    B3LYP Hybrid-GGA Exchange-Correlation Functional (VWN1-RPA)

    P.J. Stephens et. al., J. Phys. Chem., 98, 11623-11627, 1994

    Points   =           5000
    Deriv    =              1
    GGA      =           TRUE
    Meta     =          FALSE

    X_LRC        =          FALSE
    X_Hybrid     =           TRUE
    X_Alpha      =   2.000000E-01
    X_Omega      =   0.000000E+00
    C_LRC        =          FALSE
    C_Hybrid     =          FALSE
    C_Alpha      =   0.000000E+00
    C_Omega      =   0.000000E+00

   => Exchange Functionals <=

    0.8000    B3_X
    0.2000      HF 

   => Correlation Functionals <=

    0.1900 VWN3RPA_C
    0.8100   LYP_C

   => Molecular Quadrature <=

    Radial Scheme    =       TREUTLER
    Pruning Scheme   =           FLAT
    Nuclear Scheme   =       TREUTLER

    BS radius alpha  =              1
    Pruning alpha    =              1
    Radial Points    =             75
    Spherical Points =            302
    Total Points     =          88272
    Total Blocks     =             87
    Max Points       =           4727
    Max Functions    =             38


  -Total Gradient:
     Atom            X                  Y                   Z
    ------   -----------------  -----------------  -----------------
       1        0.007021136731     0.007069315280     0.002569007404
       2       -0.005678540036     0.007899692844     0.003144525192
       3        0.017293217311    -0.010121384550    -0.000250921694
       4       -0.018636313132    -0.004853221445    -0.005464740047


*** tstop() called on computer06 at Tue Dec 12 12:39:11 2017
Module time:
	user time   =       1.13 seconds =       0.02 minutes
	system time =       0.01 seconds =       0.00 minutes
	total time  =          2 seconds =       0.03 minutes
Total time:
	user time   =       6.45 seconds =       0.11 minutes
	system time =       0.08 seconds =       0.00 minutes
	total time  =          7 seconds =       0.12 minutes

			-----------------------------------------
			 OPTKING 2.0: for geometry optimizations 
			  - R.A. King,  Bethel University        
			-----------------------------------------
	At level 1: Red. Int., RFO, no backsteps, dynamic trust

	Internal coordinates to be generated automatically.
	Detected frag 1 with atoms:  1 2 3 4
	---Fragment 1 Bond Connectivity---
	 1 : 2 3
	 2 : 1 4
	 3 : 1
	 4 : 2

	Assuming in current code that numbering for constraints corresponds to unified fragment.
	Frozen dihedral atom list: 
	     3     1     2     4
	---Fragment 1 Geometry and Gradient---
	 O           1.9167492166       -0.0043463701        0.1143284310
	 O           4.6532616296       -0.2031455593       -0.0045353427
	 H           1.5518431003       -1.5563784430       -0.8137160728
	 H           4.7183740333       -2.0127227377       -0.3564306946
	             0.0070211367        0.0070693153        0.0025690074
	            -0.0056785400        0.0078996928        0.0031445252
	             0.0172932173       -0.0101213845       -0.0002509217
	            -0.0186363131       -0.0048532214       -0.0054647400

	Previous optimization step data not found.  Starting new optimization.

	---Fragment 1 Intrafragment Coordinates---
	 - Coordinate -           - BOHR/RAD -       - ANG/DEG -
	 R(1,2)           =         2.746297	       1.453278
	 R(1,3)           =         1.844784	       0.976217
	 R(2,4)           =         1.844624	       0.976133
	 B(1,2,4)         =         1.685490	      96.571449
	 B(2,1,3)         =         1.685473	      96.570488
	*D(3,1,2,4)       =        -0.349012	     -19.996936

	Current energy   :      -151.5351162653

	Generating empirical Hessian (Schlegel '84) for each fragment.
	Taking RFO optimization step.
	Going to follow RFO solution 1.
	Using RFO vector 1.
	Norm of target step-size    0.28552
	Projected energy change by RFO approximation:        -0.0211891701

	Back-transformation to cartesian coordinates...
	Successfully converged to displaced geometry.

	Back-transformation to cartesian coordinates to adjust frozen coordinates...
	Successfully converged to displaced geometry.

	--- Internal Coordinate Step in ANG or DEG, aJ/ANG or AJ/DEG ---
	 ---------------------------------------------------------------------------
	   Coordinate                Previous        Force       Change         New 
	   ----------                --------       ------       ------       ------
	    1 R(1,2)          =      1.453278     0.200602     0.032755     1.486033
	    2 R(1,3)          =      0.976217    -0.043003    -0.005149     0.971069
	    3 R(2,4)          =      0.976133    -0.042384    -0.005073     0.971060
	    4 B(1,2,4)        =     96.571449     0.002624    11.263798   107.835247
	    5 B(2,1,3)        =     96.570488     0.002624    11.265709   107.836196
	    6 *D(3,1,2,4)     =    -19.996936     0.000000     0.000000   -19.996936
	 ---------------------------------------------------------------------------
	Successfully symmetrized geometry.

  ==> Convergence Check <==

  Measures of convergence in internal coordinates in au.
  Criteria marked as inactive (o), active & met (*), and active & unmet ( ).
  --------------------------------------------------------------------------------------------- ~
   Step     Total Energy     Delta E     MAX Force     RMS Force      MAX Disp      RMS Disp    ~
  --------------------------------------------------------------------------------------------- ~
    Convergence Criteria    1.00e-06 *    3.00e-04 *             o    1.20e-03 *             o  ~
  --------------------------------------------------------------------------------------------- ~
      1    -151.53511627   -1.52e+02      3.45e-02      2.25e-02 o    1.97e-01      1.16e-01 o  ~
  ---------------------------------------------------------------------------------------------

	Writing optimization data to binary file.
	Structure for next step:
	Cartesian Geometry (in Angstrom)
	    O     0.9961051158  -0.0144956280   0.0337368443
	    O     2.4768721814  -0.1369126591   0.0085139864
	    H     0.6262845841  -0.7808953815  -0.4340649201
	    H     2.6954941188  -1.0661833313  -0.1693009105
			--------------------------
			 OPTKING Finished Execution 
			--------------------------

    Structure for next step:
    Molecular point group: c1
    Full point group: C1

    Geometry (in Angstrom), charge = 0, multiplicity = 1:

    O            0.996105115771    -0.014495628037     0.033736844311
    O            2.476872181351    -0.136912659149     0.008513986369
    H            0.626284584086    -0.780895381468    -0.434064920143
    H            2.695494118791    -1.066183331346    -0.169300910537

gradient() will perform analytic gradient computation.

*** tstart() called on computer06
*** at Tue Dec 12 12:39:11 2017

   => Loading Basis Set <=

    Name: CC-PVDZ
    Role: ORBITAL
    Keyword: BASIS
    atoms 1-2 entry O          line   190 file /shared/raimis/opt/miniconda/envs/htmd/share/psi4/basis/cc-pvdz.gbs 
    atoms 3-4 entry H          line    20 file /shared/raimis/opt/miniconda/envs/htmd/share/psi4/basis/cc-pvdz.gbs 


         ---------------------------------------------------------
                                   SCF
            by Justin Turney, Rob Parrish, and Andy Simmonett
                              RKS Reference
                        1 Threads,   4009 MiB Core
         ---------------------------------------------------------

  ==> Geometry <==

    Molecular point group: c1
    Full point group: C1

    Geometry (in Angstrom), charge = 0, multiplicity = 1:

       Center              X                  Y                   Z               Mass       
    ------------   -----------------  -----------------  -----------------  -----------------
           O          0.996105115771    -0.014495628037     0.033736844311    15.994914619560
           O          2.476872181351    -0.136912659149     0.008513986369    15.994914619560
           H          0.626284584086    -0.780895381468    -0.434064920143     1.007825032070
           H          2.695494118791    -1.066183331346    -0.169300910537     1.007825032070

  Running in c1 symmetry.

  Rotational constants: A =     10.39528  B =      0.13768  C =      0.13598 [cm^-1]
  Rotational constants: A = 311642.64416  B =   4127.50315  C =   4076.60145 [MHz]
  Nuclear repulsion =   35.975798894535323

  Charge       = 0
  Multiplicity = 1
  Electrons    = 18
  Nalpha       = 9
  Nbeta        = 9

  ==> Algorithm <==

  SCF Algorithm Type is DF.
  DIIS enabled.
  MOM disabled.
  Fractional occupation disabled.
  Guess Type is READ.
  Energy threshold   = 1.00e-08
  Density threshold  = 1.00e-08
  Integral threshold = 0.00e+00

  ==> Primary Basis <==

  Basis Set: CC-PVDZ
    Blend: CC-PVDZ
    Number of shells: 18
    Number of basis function: 38
    Number of Cartesian functions: 40
    Spherical Harmonics?: true
    Max angular momentum: 2

  ==> DFT Potential <==

   => B3LYP Composite Functional <= 

    B3LYP Hybrid-GGA Exchange-Correlation Functional (VWN1-RPA)

    P.J. Stephens et. al., J. Phys. Chem., 98, 11623-11627, 1994

    Points   =           5000
    Deriv    =              1
    GGA      =           TRUE
    Meta     =          FALSE

    X_LRC        =          FALSE
    X_Hybrid     =           TRUE
    X_Alpha      =   2.000000E-01
    X_Omega      =   0.000000E+00
    C_LRC        =          FALSE
    C_Hybrid     =          FALSE
    C_Alpha      =   0.000000E+00
    C_Omega      =   0.000000E+00

   => Exchange Functionals <=

    0.8000    B3_X
    0.2000      HF 

   => Correlation Functionals <=

    0.1900 VWN3RPA_C
    0.8100   LYP_C

   => Molecular Quadrature <=

    Radial Scheme    =       TREUTLER
    Pruning Scheme   =           FLAT
    Nuclear Scheme   =       TREUTLER

    BS radius alpha  =              1
    Pruning alpha    =              1
    Radial Points    =             75
    Spherical Points =            302
    Total Points     =          88310
    Total Blocks     =             86
    Max Points       =           4670
    Max Functions    =             38

   => -D3ZERO: Empirical Dispersion <=

    Grimme's -D3 (zero-damping) Dispersion Correction
    Grimme S.; Antony J.; Ehrlich S.; Krieg H. (2010), J. Chem. Phys., 132: 154104

        S6 =   1.000000E+00
        S8 =   1.703000E+00
       SR6 =   1.261000E+00
    ALPHA6 =   1.400000E+01

   => Loading Basis Set <=

    Name: (CC-PVDZ AUX)
    Role: JKFIT
    Keyword: DF_BASIS_SCF
    atoms 1-2 entry O          line   220 file /shared/raimis/opt/miniconda/envs/htmd/share/psi4/basis/cc-pvdz-jkfit.gbs 
    atoms 3-4 entry H          line    50 file /shared/raimis/opt/miniconda/envs/htmd/share/psi4/basis/cc-pvdz-jkfit.gbs 

  Reading orbitals from file 180, no projection.

  ==> Pre-Iterations <==

   -------------------------------------------------------
    Irrep   Nso     Nmo     Nalpha   Nbeta   Ndocc  Nsocc
   -------------------------------------------------------
     A         38      38       0       0       0       0
   -------------------------------------------------------
    Total      38      38       9       9       9       0
   -------------------------------------------------------

  ==> Integral Setup <==

  ==> DFJK: Density-Fitted J/K Matrices <==

    J tasked:                  Yes
    K tasked:                  Yes
    wK tasked:                  No
    OpenMP threads:              1
    Integrals threads:           1
    Memory (MB):              3006
    Algorithm:                Core
    Integral Cache:           NONE
    Schwarz Cutoff:          1E-12
    Fitting Condition:       1E-12

   => Auxiliary Basis Set <=

  Basis Set: (CC-PVDZ AUX)
    Blend: CC-PVDZ-JKFIT
    Number of shells: 66
    Number of basis function: 186
    Number of Cartesian functions: 212
    Spherical Harmonics?: true
    Max angular momentum: 3

  Minimum eigenvalue in the overlap matrix is 2.6820285167E-02.
  Using Symmetric Orthogonalization.

  SCF Guess: Orbitals guess was supplied from a previous computation.

  ==> Iterations <==

                           Total Energy        Delta E     RMS |[F,P]|

   @DF-RKS iter   0:  -151.52867990438818   -1.51529e+02   3.52497e-03 
   @DF-RKS iter   1:  -151.53752230846069   -8.84240e-03   1.16356e-03 
   @DF-RKS iter   2:  -151.53793483336520   -4.12525e-04   7.23725e-04 DIIS
   @DF-RKS iter   3:  -151.53819248230920   -2.57649e-04   2.07828e-04 DIIS
   @DF-RKS iter   4:  -151.53821572542950   -2.32431e-05   2.24240e-05 DIIS
   @DF-RKS iter   5:  -151.53821607431846   -3.48889e-07   2.33778e-06 DIIS
   @DF-RKS iter   6:  -151.53821607313435    1.18411e-09   3.35972e-06 DIIS
   @DF-RKS iter   7:  -151.53821607917024   -6.03589e-09   1.01261e-07 DIIS
   @DF-RKS iter   8:  -151.53821607918118   -1.09424e-11   1.43033e-08 DIIS
   @DF-RKS iter   9:  -151.53821607918135   -1.70530e-13   1.79649e-09 DIIS

  ==> Post-Iterations <==

    Orbital Energies (a.u.)
    -----------------------

    Doubly Occupied:                                                      

       1A    -19.190796     2A    -19.190769     3A     -1.094225  
       4A     -0.901286     5A     -0.559512     6A     -0.411036  
       7A     -0.399513     8A     -0.361062     9A     -0.252119  

    Virtual:                                                              

      10A     -0.006524    11A      0.028103    12A      0.122700  
      13A      0.548826    14A      0.582497    15A      0.856071  
      16A      0.868901    17A      0.953153    18A      0.955675  
      19A      0.983421    20A      1.067153    21A      1.265435  
      22A      1.285684    23A      1.346403    24A      1.456464  
      25A      1.539641    26A      1.814856    27A      2.033843  
      28A      2.098484    29A      2.346406    30A      2.366138  
      31A      2.642942    32A      2.865656    33A      2.911940  
      34A      2.961096    35A      3.140976    36A      3.546178  
      37A      3.549096    38A      3.748411  

    Final Occupation by Irrep:
              A 
    DOCC [     9 ]

  Energy converged.

  @DF-RKS Final Energy:  -151.53821607918135

   => Energetics <=

    Nuclear Repulsion Energy =             35.9757988945353233
    One-Electron Energy =                -279.9321656857382550
    Two-Electron Energy =                 106.8662936215402794
    DFT Exchange-Correlation Energy =     -14.4477434095187043
    Empirical Dispersion Energy =          -0.0003995000000000
    PCM Polarization Energy =               0.0000000000000000
    EFP Energy =                            0.0000000000000000
    Total Energy =                       -151.5382160791813249



Properties will be evaluated at   0.000000,   0.000000,   0.000000 Bohr

Properties computed using the SCF density matrix

  Nuclear Dipole Moment: (a.u.)
     X:    58.7811      Y:    -5.7794      Z:    -0.5015

  Electronic Dipole Moment: (a.u.)
     X:   -58.8826      Y:     4.6403      Z:     0.0677

  Dipole Moment: (a.u.)
     X:    -0.1016      Y:    -1.1392      Z:    -0.4337     Total:     1.2232

  Dipole Moment: (Debye)
     X:    -0.2582      Y:    -2.8955      Z:    -1.1024     Total:     3.1090


*** tstop() called on computer06 at Tue Dec 12 12:39:16 2017
Module time:
	user time   =       4.85 seconds =       0.08 minutes
	system time =       0.06 seconds =       0.00 minutes
	total time  =          5 seconds =       0.08 minutes
Total time:
	user time   =      11.32 seconds =       0.19 minutes
	system time =       0.14 seconds =       0.00 minutes
	total time  =         12 seconds =       0.20 minutes

*** tstart() called on computer06
*** at Tue Dec 12 12:39:16 2017


         ------------------------------------------------------------
                                   SCF GRAD                          
                          Rob Parrish, Justin Turney,                
                       Andy Simmonett, and Alex Sokolov              
         ------------------------------------------------------------

  ==> Geometry <==

    Molecular point group: c1
    Full point group: C1

    Geometry (in Angstrom), charge = 0, multiplicity = 1:

       Center              X                  Y                   Z               Mass       
    ------------   -----------------  -----------------  -----------------  -----------------
           O          0.996105115771    -0.014495628037     0.033736844311    15.994914619560
           O          2.476872181351    -0.136912659149     0.008513986369    15.994914619560
           H          0.626284584086    -0.780895381468    -0.434064920143     1.007825032070
           H          2.695494118791    -1.066183331346    -0.169300910537     1.007825032070

  Nuclear repulsion =   35.975798894535323

  ==> Basis Set <==

  Basis Set: CC-PVDZ
    Blend: CC-PVDZ
    Number of shells: 18
    Number of basis function: 38
    Number of Cartesian functions: 40
    Spherical Harmonics?: true
    Max angular momentum: 2

  ==> DFJKGrad: Density-Fitted SCF Gradients <==

    Gradient:                    1
    J tasked:                  Yes
    K tasked:                  Yes
    wK tasked:                  No
    OpenMP threads:              1
    Integrals threads:           1
    Memory (MB):              3006
    Schwarz Cutoff:          0E+00
    Fitting Condition:       1E-12

   => Auxiliary Basis Set <=

  Basis Set: (CC-PVDZ AUX)
    Blend: CC-PVDZ-JKFIT
    Number of shells: 66
    Number of basis function: 186
    Number of Cartesian functions: 212
    Spherical Harmonics?: true
    Max angular momentum: 3

  ==> DFT Potential <==

   => B3LYP Composite Functional <= 

    B3LYP Hybrid-GGA Exchange-Correlation Functional (VWN1-RPA)

    P.J. Stephens et. al., J. Phys. Chem., 98, 11623-11627, 1994

    Points   =           5000
    Deriv    =              1
    GGA      =           TRUE
    Meta     =          FALSE

    X_LRC        =          FALSE
    X_Hybrid     =           TRUE
    X_Alpha      =   2.000000E-01
    X_Omega      =   0.000000E+00
    C_LRC        =          FALSE
    C_Hybrid     =          FALSE
    C_Alpha      =   0.000000E+00
    C_Omega      =   0.000000E+00

   => Exchange Functionals <=

    0.8000    B3_X
    0.2000      HF 

   => Correlation Functionals <=

    0.1900 VWN3RPA_C
    0.8100   LYP_C

   => Molecular Quadrature <=

    Radial Scheme    =       TREUTLER
    Pruning Scheme   =           FLAT
    Nuclear Scheme   =       TREUTLER

    BS radius alpha  =              1
    Pruning alpha    =              1
    Radial Points    =             75
    Spherical Points =            302
    Total Points     =          88310
    Total Blocks     =             86
    Max Points       =           4670
    Max Functions    =             38


  -Total Gradient:
     Atom            X                  Y                   Z
    ------   -----------------  -----------------  -----------------
       1       -0.014025889800    -0.002082809306    -0.008430939404
       2        0.013017493383    -0.009273037950     0.004108628284
       3       -0.005925815900     0.004786208698     0.005986249043
       4        0.006933442231     0.006561037902    -0.001667210054


*** tstop() called on computer06 at Tue Dec 12 12:39:17 2017
Module time:
	user time   =       1.15 seconds =       0.02 minutes
	system time =       0.02 seconds =       0.00 minutes
	total time  =          1 seconds =       0.02 minutes
Total time:
	user time   =      12.47 seconds =       0.21 minutes
	system time =       0.16 seconds =       0.00 minutes
	total time  =         13 seconds =       0.22 minutes

			-----------------------------------------
			 OPTKING 2.0: for geometry optimizations 
			  - R.A. King,  Bethel University        
			-----------------------------------------
	At level 1: Red. Int., RFO, no backsteps, dynamic trust

	Previous internal coordinate definitions found.
	---Fragment 1 Geometry and Gradient---
	 O           1.8823658684       -0.0273927671        0.0637533963
	 O           4.6806100889       -0.2587274299        0.0160891025
	 H           1.1835063452       -1.4756784094       -0.8202638230
	 H           5.0937456773       -2.0147945037       -0.3199323550
	            -0.0140258898       -0.0020828093       -0.0084309394
	             0.0130174934       -0.0092730380        0.0041086283
	            -0.0059258159        0.0047862087        0.0059862490
	             0.0069334422        0.0065610379       -0.0016672101

	---Fragment 1 Intrafragment Coordinates---
	 - Coordinate -           - BOHR/RAD -       - ANG/DEG -
	 R(1,2)           =         2.808195	       1.486033
	 R(1,3)           =         1.835054	       0.971069
	 R(2,4)           =         1.835038	       0.971060
	 B(1,2,4)         =         1.882080	     107.835247
	 B(2,1,3)         =         1.882097	     107.836196
	*D(3,1,2,4)       =        -0.349012	     -19.996936

	Current energy   :      -151.5382160792

	Energy change for the previous step:
		Projected    :        -0.0211891701
		Actual       :        -0.0030998139
	Energy ratio indicates iffy step: Trust radius decreased to 1.250e-01.


	Performing BFGS update.
	Previous computed or guess Hessian on step 1.
	Steps to be used in Hessian update: 1
	Taking RFO optimization step.
	Going to follow RFO solution 1.
	Using RFO vector 1.
	Norm of target step-size    0.08629
	Projected energy change by RFO approximation:        -0.0011444149

	Back-transformation to cartesian coordinates...
	Successfully converged to displaced geometry.

	Back-transformation to cartesian coordinates to adjust frozen coordinates...
	Successfully converged to displaced geometry.

	--- Internal Coordinate Step in ANG or DEG, aJ/ANG or AJ/DEG ---
	 ---------------------------------------------------------------------------
	   Coordinate                Previous        Force       Change         New 
	   ----------                --------       ------       ------       ------
	    1 R(1,2)          =      1.486033    -0.165288    -0.018387     1.467646
	    2 R(1,3)          =      0.971069     0.036306     0.002955     0.974023
	    3 R(2,4)          =      0.971060     0.036372     0.002960     0.974020
	    4 B(1,2,4)        =    107.835247    -0.001137    -3.184433   104.650813
	    5 B(2,1,3)        =    107.836196    -0.001137    -3.185185   104.651011
	    6 *D(3,1,2,4)     =    -19.996936     0.000000    -0.000000   -19.996936
	 ---------------------------------------------------------------------------
	Successfully symmetrized geometry.

  ==> Convergence Check <==

  Measures of convergence in internal coordinates in au.
  Criteria marked as inactive (o), active & met (*), and active & unmet ( ).
  ---------------------------------------------------------------------------------------------
   Step     Total Energy     Delta E     MAX Force     RMS Force      MAX Disp      RMS Disp   
  ---------------------------------------------------------------------------------------------
    Convergence Criteria    1.00e-06 *    3.00e-04 *             o    1.20e-03 *             o
  ---------------------------------------------------------------------------------------------
      2    -151.53821608   -3.10e-03      2.01e-02      1.22e-02 o    5.56e-02      3.52e-02 o  ~
  ---------------------------------------------------------------------------------------------

	Writing optimization data to binary file.
	Structure for next step:
	Cartesian Geometry (in Angstrom)
	    O     1.0059416924  -0.0091311578   0.0422835707
	    O     2.4684984149  -0.1258060660   0.0062377363
	    H     0.6842450387  -0.7957044606  -0.4336733228
	    H     2.6360708540  -1.0678453155  -0.1759629843
			--------------------------
			 OPTKING Finished Execution 
			--------------------------

    Structure for next step:
    Molecular point group: c1
    Full point group: C1

    Geometry (in Angstrom), charge = 0, multiplicity = 1:

    O            1.005941692356    -0.009131157821     0.042283570721
    O            2.468498414913    -0.125806066014     0.006237736322
    H            0.684245038745    -0.795704460649    -0.433673322755
    H            2.636070853986    -1.067845315516    -0.175962984288

gradient() will perform analytic gradient computation.

*** tstart() called on computer06
*** at Tue Dec 12 12:39:17 2017

   => Loading Basis Set <=

    Name: CC-PVDZ
    Role: ORBITAL
    Keyword: BASIS
    atoms 1-2 entry O          line   190 file /shared/raimis/opt/miniconda/envs/htmd/share/psi4/basis/cc-pvdz.gbs 
    atoms 3-4 entry H          line    20 file /shared/raimis/opt/miniconda/envs/htmd/share/psi4/basis/cc-pvdz.gbs 


         ---------------------------------------------------------
                                   SCF
            by Justin Turney, Rob Parrish, and Andy Simmonett
                              RKS Reference
                        1 Threads,   4009 MiB Core
         ---------------------------------------------------------

  ==> Geometry <==

    Molecular point group: c1
    Full point group: C1

    Geometry (in Angstrom), charge = 0, multiplicity = 1:

       Center              X                  Y                   Z               Mass       
    ------------   -----------------  -----------------  -----------------  -----------------
           O          1.005941692356    -0.009131157821     0.042283570721    15.994914619560
           O          2.468498414913    -0.125806066014     0.006237736322    15.994914619560
           H          0.684245038745    -0.795704460649    -0.433673322755     1.007825032070
           H          2.636070853986    -1.067845315516    -0.175962984288     1.007825032070

  Running in c1 symmetry.

  Rotational constants: A =      9.98665  B =      0.13843  C =      0.13664 [cm^-1]
  Rotational constants: A = 299392.32819  B =   4150.00217  C =   4096.50445 [MHz]
  Nuclear repulsion =   36.363575761720035

  Charge       = 0
  Multiplicity = 1
  Electrons    = 18
  Nalpha       = 9
  Nbeta        = 9

  ==> Algorithm <==

  SCF Algorithm Type is DF.
  DIIS enabled.
  MOM disabled.
  Fractional occupation disabled.
  Guess Type is READ.
  Energy threshold   = 1.00e-08
  Density threshold  = 1.00e-08
  Integral threshold = 0.00e+00

  ==> Primary Basis <==

  Basis Set: CC-PVDZ
    Blend: CC-PVDZ
    Number of shells: 18
    Number of basis function: 38
    Number of Cartesian functions: 40
    Spherical Harmonics?: true
    Max angular momentum: 2

  ==> DFT Potential <==

   => B3LYP Composite Functional <= 

    B3LYP Hybrid-GGA Exchange-Correlation Functional (VWN1-RPA)

    P.J. Stephens et. al., J. Phys. Chem., 98, 11623-11627, 1994

    Points   =           5000
    Deriv    =              1
    GGA      =           TRUE
    Meta     =          FALSE

    X_LRC        =          FALSE
    X_Hybrid     =           TRUE
    X_Alpha      =   2.000000E-01
    X_Omega      =   0.000000E+00
    C_LRC        =          FALSE
    C_Hybrid     =          FALSE
    C_Alpha      =   0.000000E+00
    C_Omega      =   0.000000E+00

   => Exchange Functionals <=

    0.8000    B3_X
    0.2000      HF 

   => Correlation Functionals <=

    0.1900 VWN3RPA_C
    0.8100   LYP_C

   => Molecular Quadrature <=

    Radial Scheme    =       TREUTLER
    Pruning Scheme   =           FLAT
    Nuclear Scheme   =       TREUTLER

    BS radius alpha  =              1
    Pruning alpha    =              1
    Radial Points    =             75
    Spherical Points =            302
    Total Points     =          88296
    Total Blocks     =             84
    Max Points       =           4712
    Max Functions    =             38

   => -D3ZERO: Empirical Dispersion <=

    Grimme's -D3 (zero-damping) Dispersion Correction
    Grimme S.; Antony J.; Ehrlich S.; Krieg H. (2010), J. Chem. Phys., 132: 154104

        S6 =   1.000000E+00
        S8 =   1.703000E+00
       SR6 =   1.261000E+00
    ALPHA6 =   1.400000E+01

   => Loading Basis Set <=

    Name: (CC-PVDZ AUX)
    Role: JKFIT
    Keyword: DF_BASIS_SCF
    atoms 1-2 entry O          line   220 file /shared/raimis/opt/miniconda/envs/htmd/share/psi4/basis/cc-pvdz-jkfit.gbs 
    atoms 3-4 entry H          line    50 file /shared/raimis/opt/miniconda/envs/htmd/share/psi4/basis/cc-pvdz-jkfit.gbs 

  Reading orbitals from file 180, no projection.

  ==> Pre-Iterations <==

   -------------------------------------------------------
    Irrep   Nso     Nmo     Nalpha   Nbeta   Ndocc  Nsocc
   -------------------------------------------------------
     A         38      38       0       0       0       0
   -------------------------------------------------------
    Total      38      38       9       9       9       0
   -------------------------------------------------------

  ==> Integral Setup <==

  ==> DFJK: Density-Fitted J/K Matrices <==

    J tasked:                  Yes
    K tasked:                  Yes
    wK tasked:                  No
    OpenMP threads:              1
    Integrals threads:           1
    Memory (MB):              3006
    Algorithm:                Core
    Integral Cache:           NONE
    Schwarz Cutoff:          1E-12
    Fitting Condition:       1E-12

   => Auxiliary Basis Set <=

  Basis Set: (CC-PVDZ AUX)
    Blend: CC-PVDZ-JKFIT
    Number of shells: 66
    Number of basis function: 186
    Number of Cartesian functions: 212
    Spherical Harmonics?: true
    Max angular momentum: 3

  Minimum eigenvalue in the overlap matrix is 2.5430284651E-02.
  Using Symmetric Orthogonalization.

  SCF Guess: Orbitals guess was supplied from a previous computation.

  ==> Iterations <==

                           Total Energy        Delta E     RMS |[F,P]|

   @DF-RKS iter   0:  -151.54214652659741   -1.51542e+02   1.28166e-03 
   @DF-RKS iter   1:  -151.53956546706692    2.58106e-03   4.38229e-04 
   @DF-RKS iter   2:  -151.53963399048914   -6.85234e-05   2.11532e-04 DIIS
   @DF-RKS iter   3:  -151.53965613518500   -2.21447e-05   3.64828e-05 DIIS
   @DF-RKS iter   4:  -151.53965682754540   -6.92360e-07   7.63182e-06 DIIS
   @DF-RKS iter   5:  -151.53965686603314   -3.84877e-08   4.63680e-07 DIIS
   @DF-RKS iter   6:  -151.53965686615328   -1.20139e-10   4.32558e-07 DIIS
   @DF-RKS iter   7:  -151.53965686625125   -9.79696e-11   5.43907e-08 DIIS
   @DF-RKS iter   8:  -151.53965686625301   -1.76215e-12   5.90865e-09 DIIS

  ==> Post-Iterations <==

    Orbital Energies (a.u.)
    -----------------------

    Doubly Occupied:                                                      

       1A    -19.190594     2A    -19.190565     3A     -1.104439  
       4A     -0.895529     5A     -0.560744     6A     -0.416963  
       7A     -0.403341     8A     -0.362206     9A     -0.249801  

    Virtual:                                                              

      10A      0.006496    11A      0.022662    12A      0.126310  
      13A      0.552994    14A      0.577286    15A      0.858382  
      16A      0.868644    17A      0.943725    18A      0.944343  
      19A      0.985099    20A      1.061684    21A      1.256362  
      22A      1.265698    23A      1.335123    24A      1.492928  
      25A      1.545105    26A      1.808596    27A      2.028454  
      28A      2.095369    29A      2.327698    30A      2.371478  
      31A      2.632093    32A      2.862528    33A      2.925402  
      34A      2.970584    35A      3.168823    36A      3.525741  
      37A      3.545511    38A      3.781589  

    Final Occupation by Irrep:
              A 
    DOCC [     9 ]

  Energy converged.

  @DF-RKS Final Energy:  -151.53965686625301

   => Energetics <=

    Nuclear Repulsion Energy =             36.3635757617200355
    One-Electron Energy =                -280.6790721621209741
    Two-Electron Energy =                 107.2300536962894455
    DFT Exchange-Correlation Energy =     -14.4539002121415230
    Empirical Dispersion Energy =          -0.0003139500000000
    PCM Polarization Energy =               0.0000000000000000
    EFP Energy =                            0.0000000000000000
    Total Energy =                       -151.5396568662530115



Properties will be evaluated at   0.000000,   0.000000,   0.000000 Bohr

Properties computed using the SCF density matrix

  Nuclear Dipole Moment: (a.u.)
     X:    58.8004      Y:    -5.5616      Z:    -0.4185

  Electronic Dipole Moment: (a.u.)
     X:   -58.9024      Y:     4.4176      Z:    -0.0170

  Dipole Moment: (a.u.)
     X:    -0.1020      Y:    -1.1440      Z:    -0.4356     Total:     1.2283

  Dipole Moment: (Debye)
     X:    -0.2592      Y:    -2.9077      Z:    -1.1071     Total:     3.1221


*** tstop() called on computer06 at Tue Dec 12 12:39:22 2017
Module time:
	user time   =       4.37 seconds =       0.07 minutes
	system time =       0.06 seconds =       0.00 minutes
	total time  =          5 seconds =       0.08 minutes
Total time:
	user time   =      16.86 seconds =       0.28 minutes
	system time =       0.23 seconds =       0.00 minutes
	total time  =         18 seconds =       0.30 minutes

*** tstart() called on computer06
*** at Tue Dec 12 12:39:22 2017


         ------------------------------------------------------------
                                   SCF GRAD                          
                          Rob Parrish, Justin Turney,                
                       Andy Simmonett, and Alex Sokolov              
         ------------------------------------------------------------

  ==> Geometry <==

    Molecular point group: c1
    Full point group: C1

    Geometry (in Angstrom), charge = 0, multiplicity = 1:

       Center              X                  Y                   Z               Mass       
    ------------   -----------------  -----------------  -----------------  -----------------
           O          1.005941692356    -0.009131157821     0.042283570721    15.994914619560
           O          2.468498414913    -0.125806066014     0.006237736322    15.994914619560
           H          0.684245038745    -0.795704460649    -0.433673322755     1.007825032070
           H          2.636070853986    -1.067845315516    -0.175962984288     1.007825032070

  Nuclear repulsion =   36.363575761720035

  ==> Basis Set <==

  Basis Set: CC-PVDZ
    Blend: CC-PVDZ
    Number of shells: 18
    Number of basis function: 38
    Number of Cartesian functions: 40
    Spherical Harmonics?: true
    Max angular momentum: 2

  ==> DFJKGrad: Density-Fitted SCF Gradients <==

    Gradient:                    1
    J tasked:                  Yes
    K tasked:                  Yes
    wK tasked:                  No
    OpenMP threads:              1
    Integrals threads:           1
    Memory (MB):              3006
    Schwarz Cutoff:          0E+00
    Fitting Condition:       1E-12

   => Auxiliary Basis Set <=

  Basis Set: (CC-PVDZ AUX)
    Blend: CC-PVDZ-JKFIT
    Number of shells: 66
    Number of basis function: 186
    Number of Cartesian functions: 212
    Spherical Harmonics?: true
    Max angular momentum: 3

  ==> DFT Potential <==

   => B3LYP Composite Functional <= 

    B3LYP Hybrid-GGA Exchange-Correlation Functional (VWN1-RPA)

    P.J. Stephens et. al., J. Phys. Chem., 98, 11623-11627, 1994

    Points   =           5000
    Deriv    =              1
    GGA      =           TRUE
    Meta     =          FALSE

    X_LRC        =          FALSE
    X_Hybrid     =           TRUE
    X_Alpha      =   2.000000E-01
    X_Omega      =   0.000000E+00
    C_LRC        =          FALSE
    C_Hybrid     =          FALSE
    C_Alpha      =   0.000000E+00
    C_Omega      =   0.000000E+00

   => Exchange Functionals <=

    0.8000    B3_X
    0.2000      HF 

   => Correlation Functionals <=

    0.1900 VWN3RPA_C
    0.8100   LYP_C

   => Molecular Quadrature <=

    Radial Scheme    =       TREUTLER
    Pruning Scheme   =           FLAT
    Nuclear Scheme   =       TREUTLER

    BS radius alpha  =              1
    Pruning alpha    =              1
    Radial Points    =             75
    Spherical Points =            302
    Total Points     =          88296
    Total Blocks     =             84
    Max Points       =           4712
    Max Functions    =             38


  -Total Gradient:
     Atom            X                  Y                   Z
    ------   -----------------  -----------------  -----------------
       1       -0.004476597483     0.002195059719    -0.004338807837
       2        0.004499745661    -0.001947340616     0.004433596498
       3       -0.001063341856    -0.001260060185     0.003178589979
       4        0.001040131441     0.001011644065    -0.003273643790


*** tstop() called on computer06 at Tue Dec 12 12:39:23 2017
Module time:
	user time   =       1.16 seconds =       0.02 minutes
	system time =       0.02 seconds =       0.00 minutes
	total time  =          1 seconds =       0.02 minutes
Total time:
	user time   =      18.02 seconds =       0.30 minutes
	system time =       0.25 seconds =       0.00 minutes
	total time  =         19 seconds =       0.32 minutes

			-----------------------------------------
			 OPTKING 2.0: for geometry optimizations 
			  - R.A. King,  Bethel University        
			-----------------------------------------
	At level 1: Red. Int., RFO, no backsteps, dynamic trust

	Previous internal coordinate definitions found.
	---Fragment 1 Geometry and Gradient---
	 O           1.9009543042       -0.0172553876        0.0799043686
	 O           4.6647859636       -0.2377390106        0.0117876133
	 H           1.2930357310       -1.5036635133       -0.8195238111
	 H           4.9814519809       -2.0179351986       -0.3325218498
	            -0.0044765975        0.0021950597       -0.0043388078
	             0.0044997457       -0.0019473406        0.0044335965
	            -0.0010633419       -0.0012600602        0.0031785900
	             0.0010401314        0.0010116441       -0.0032736438

	---Fragment 1 Intrafragment Coordinates---
	 - Coordinate -           - BOHR/RAD -       - ANG/DEG -
	 R(1,2)           =         2.773449	       1.467646
	 R(1,3)           =         1.840637	       0.974023
	 R(2,4)           =         1.840632	       0.974020
	 B(1,2,4)         =         1.826501	     104.650813
	 B(2,1,3)         =         1.826505	     104.651011
	*D(3,1,2,4)       =        -0.349012	     -19.996936

	Current energy   :      -151.5396568663

	Energy change for the previous step:
		Projected    :        -0.0011444149
		Actual       :        -0.0014407871
	Energy ratio indicates good step: Trust radius increased to 3.750e-01.


	Performing BFGS update.
	Previous computed or guess Hessian on step 1.
	Steps to be used in Hessian update: 2 1
	Taking RFO optimization step.
	Going to follow RFO solution 1.
	Using RFO vector 1.
	Norm of target step-size    0.01377
	Projected energy change by RFO approximation:        -0.0000513938

	Back-transformation to cartesian coordinates...
	Successfully converged to displaced geometry.

	Back-transformation to cartesian coordinates to adjust frozen coordinates...
	Successfully converged to displaced geometry.

	--- Internal Coordinate Step in ANG or DEG, aJ/ANG or AJ/DEG ---
	 ---------------------------------------------------------------------------
	   Coordinate                Previous        Force       Change         New 
	   ----------                --------       ------       ------       ------
	    1 R(1,2)          =      1.467646    -0.045865    -0.006081     1.461565
	    2 R(1,3)          =      0.974023     0.001524    -0.000056     0.973968
	    3 R(2,4)          =      0.974020     0.001546    -0.000052     0.973968
	    4 B(1,2,4)        =    104.650813    -0.000157    -0.307039   104.343774
	    5 B(2,1,3)        =    104.651011    -0.000157    -0.307213   104.343798
	    6 *D(3,1,2,4)     =    -19.996936     0.000000    -0.000000   -19.996936
	 ---------------------------------------------------------------------------
	Successfully symmetrized geometry.

  ==> Convergence Check <==

  Measures of convergence in internal coordinates in au.
  Criteria marked as inactive (o), active & met (*), and active & unmet ( ).
  ---------------------------------------------------------------------------------------------
   Step     Total Energy     Delta E     MAX Force     RMS Force      MAX Disp      RMS Disp   
  ---------------------------------------------------------------------------------------------
    Convergence Criteria    1.00e-06 *    3.00e-04 *             o    1.20e-03 *             o
  ---------------------------------------------------------------------------------------------
      3    -151.53965687   -1.44e-03      5.57e-03      2.57e-03 o    1.15e-02      5.62e-03 o  ~
  ---------------------------------------------------------------------------------------------

	Writing optimization data to binary file.
	Structure for next step:
	Cartesian Geometry (in Angstrom)
	    O     1.0090185267  -0.0090613311   0.0431218327
	    O     2.4655221286  -0.1247246227   0.0058373834
	    H     0.6921061279  -0.7971841413  -0.4333673185
	    H     2.6281092167  -1.0675169050  -0.1767068977
			--------------------------
			 OPTKING Finished Execution 
			--------------------------

    Structure for next step:
    Molecular point group: c1
    Full point group: C1

    Geometry (in Angstrom), charge = 0, multiplicity = 1:

    O            1.009018526732    -0.009061331074     0.043121832736
    O            2.465522128643    -0.124724622709     0.005837383391
    H            0.692106127936    -0.797184141258    -0.433367318460
    H            2.628109216689    -1.067516904959    -0.176706897666

gradient() will perform analytic gradient computation.

*** tstart() called on computer06
*** at Tue Dec 12 12:39:23 2017

   => Loading Basis Set <=

    Name: CC-PVDZ
    Role: ORBITAL
    Keyword: BASIS
    atoms 1-2 entry O          line   190 file /shared/raimis/opt/miniconda/envs/htmd/share/psi4/basis/cc-pvdz.gbs 
    atoms 3-4 entry H          line    20 file /shared/raimis/opt/miniconda/envs/htmd/share/psi4/basis/cc-pvdz.gbs 


         ---------------------------------------------------------
                                   SCF
            by Justin Turney, Rob Parrish, and Andy Simmonett
                              RKS Reference
                        1 Threads,   4009 MiB Core
         ---------------------------------------------------------

  ==> Geometry <==

    Molecular point group: c1
    Full point group: C1

    Geometry (in Angstrom), charge = 0, multiplicity = 1:

       Center              X                  Y                   Z               Mass       
    ------------   -----------------  -----------------  -----------------  -----------------
           O          1.009018526732    -0.009061331074     0.043121832736    15.994914619560
           O          2.465522128643    -0.124724622709     0.005837383391    15.994914619560
           H          0.692106127936    -0.797184141258    -0.433367318460     1.007825032070
           H          2.628109216689    -1.067516904959    -0.176706897666     1.007825032070

  Running in c1 symmetry.

  Rotational constants: A =      9.95824  B =      0.13863  C =      0.13683 [cm^-1]
  Rotational constants: A = 298540.52539  B =   4155.91185  C =   4102.12405 [MHz]
  Nuclear repulsion =   36.482578020225468

  Charge       = 0
  Multiplicity = 1
  Electrons    = 18
  Nalpha       = 9
  Nbeta        = 9

  ==> Algorithm <==

  SCF Algorithm Type is DF.
  DIIS enabled.
  MOM disabled.
  Fractional occupation disabled.
  Guess Type is READ.
  Energy threshold   = 1.00e-08
  Density threshold  = 1.00e-08
  Integral threshold = 0.00e+00

  ==> Primary Basis <==

  Basis Set: CC-PVDZ
    Blend: CC-PVDZ
    Number of shells: 18
    Number of basis function: 38
    Number of Cartesian functions: 40
    Spherical Harmonics?: true
    Max angular momentum: 2

  ==> DFT Potential <==

   => B3LYP Composite Functional <= 

    B3LYP Hybrid-GGA Exchange-Correlation Functional (VWN1-RPA)

    P.J. Stephens et. al., J. Phys. Chem., 98, 11623-11627, 1994

    Points   =           5000
    Deriv    =              1
    GGA      =           TRUE
    Meta     =          FALSE

    X_LRC        =          FALSE
    X_Hybrid     =           TRUE
    X_Alpha      =   2.000000E-01
    X_Omega      =   0.000000E+00
    C_LRC        =          FALSE
    C_Hybrid     =          FALSE
    C_Alpha      =   0.000000E+00
    C_Omega      =   0.000000E+00

   => Exchange Functionals <=

    0.8000    B3_X
    0.2000      HF 

   => Correlation Functionals <=

    0.1900 VWN3RPA_C
    0.8100   LYP_C

   => Molecular Quadrature <=

    Radial Scheme    =       TREUTLER
    Pruning Scheme   =           FLAT
    Nuclear Scheme   =       TREUTLER

    BS radius alpha  =              1
    Pruning alpha    =              1
    Radial Points    =             75
    Spherical Points =            302
    Total Points     =          88294
    Total Blocks     =             85
    Max Points       =           4692
    Max Functions    =             38

   => -D3ZERO: Empirical Dispersion <=

    Grimme's -D3 (zero-damping) Dispersion Correction
    Grimme S.; Antony J.; Ehrlich S.; Krieg H. (2010), J. Chem. Phys., 132: 154104

        S6 =   1.000000E+00
        S8 =   1.703000E+00
       SR6 =   1.261000E+00
    ALPHA6 =   1.400000E+01

   => Loading Basis Set <=

    Name: (CC-PVDZ AUX)
    Role: JKFIT
    Keyword: DF_BASIS_SCF
    atoms 1-2 entry O          line   220 file /shared/raimis/opt/miniconda/envs/htmd/share/psi4/basis/cc-pvdz-jkfit.gbs 
    atoms 3-4 entry H          line    50 file /shared/raimis/opt/miniconda/envs/htmd/share/psi4/basis/cc-pvdz-jkfit.gbs 

  Reading orbitals from file 180, no projection.

  ==> Pre-Iterations <==

   -------------------------------------------------------
    Irrep   Nso     Nmo     Nalpha   Nbeta   Ndocc  Nsocc
   -------------------------------------------------------
     A         38      38       0       0       0       0
   -------------------------------------------------------
    Total      38      38       9       9       9       0
   -------------------------------------------------------

  ==> Integral Setup <==

  ==> DFJK: Density-Fitted J/K Matrices <==

    J tasked:                  Yes
    K tasked:                  Yes
    wK tasked:                  No
    OpenMP threads:              1
    Integrals threads:           1
    Memory (MB):              3006
    Algorithm:                Core
    Integral Cache:           NONE
    Schwarz Cutoff:          1E-12
    Fitting Condition:       1E-12

   => Auxiliary Basis Set <=

  Basis Set: (CC-PVDZ AUX)
    Blend: CC-PVDZ-JKFIT
    Number of shells: 66
    Number of basis function: 186
    Number of Cartesian functions: 212
    Spherical Harmonics?: true
    Max angular momentum: 3

  Minimum eigenvalue in the overlap matrix is 2.5092733417E-02.
  Using Symmetric Orthogonalization.

  SCF Guess: Orbitals guess was supplied from a previous computation.

  ==> Iterations <==

                           Total Energy        Delta E     RMS |[F,P]|

   @DF-RKS iter   0:  -151.54232399842226   -1.51542e+02   3.12452e-04 
   @DF-RKS iter   1:  -151.53970675018482    2.61725e-03   9.72948e-05 
   @DF-RKS iter   2:  -151.53970991679336   -3.16661e-06   4.98815e-05 DIIS
   @DF-RKS iter   3:  -151.53971110129760   -1.18450e-06   9.60333e-06 DIIS
   @DF-RKS iter   4:  -151.53971115047582   -4.91782e-08   8.42135e-07 DIIS
   @DF-RKS iter   5:  -151.53971115101680   -5.40979e-10   1.29536e-07 DIIS
   @DF-RKS iter   6:  -151.53971115101803   -1.22213e-12   1.33906e-07 DIIS
   @DF-RKS iter   7:  -151.53971115102732   -9.29390e-12   2.78141e-08 DIIS
   @DF-RKS iter   8:  -151.53971115102772   -3.97904e-13   1.00745e-09 DIIS

  ==> Post-Iterations <==

    Orbital Energies (a.u.)
    -----------------------

    Doubly Occupied:                                                      

       1A    -19.190262     2A    -19.190233     3A     -1.107219  
       4A     -0.894268     5A     -0.561989     6A     -0.418082  
       7A     -0.404070     8A     -0.362108     9A     -0.248910  

    Virtual:                                                              

      10A      0.010052    11A      0.022031    12A      0.127641  
      13A      0.553408    14A      0.577236    15A      0.859255  
      16A      0.868944    17A      0.941996    18A      0.942083  
      19A      0.985183    20A      1.061534    21A      1.251771  
      22A      1.265526    23A      1.334237    24A      1.499457  
      25A      1.546459    26A      1.808806    27A      2.028652  
      28A      2.096381    29A      2.322870    30A      2.375201  
      31A      2.628606    32A      2.861581    33A      2.926888  
      34A      2.977450    35A      3.175828    36A      3.525940  
      37A      3.544385    38A      3.789211  

    Final Occupation by Irrep:
              A 
    DOCC [     9 ]

  Energy converged.

  @DF-RKS Final Energy:  -151.53971115102772

   => Energetics <=

    Nuclear Repulsion Energy =             36.4825780202254677
    One-Electron Energy =                -280.9096731241256748
    Two-Electron Energy =                 107.3440472196337225
    DFT Exchange-Correlation Energy =     -14.4563616767612757
    Empirical Dispersion Energy =          -0.0003015900000000
    PCM Polarization Energy =               0.0000000000000000
    EFP Energy =                            0.0000000000000000
    Total Energy =                       -151.5397111510277455



Properties will be evaluated at   0.000000,   0.000000,   0.000000 Bohr

Properties computed using the SCF density matrix

  Nuclear Dipole Moment: (a.u.)
     X:    58.8017      Y:    -5.5463      Z:    -0.4127

  Electronic Dipole Moment: (a.u.)
     X:   -58.9037      Y:     4.4023      Z:    -0.0229

  Dipole Moment: (a.u.)
     X:    -0.1020      Y:    -1.1440      Z:    -0.4356     Total:     1.2284

  Dipole Moment: (Debye)
     X:    -0.2593      Y:    -2.9078      Z:    -1.1071     Total:     3.1222


*** tstop() called on computer06 at Tue Dec 12 12:39:28 2017
Module time:
	user time   =       4.50 seconds =       0.07 minutes
	system time =       0.03 seconds =       0.00 minutes
	total time  =          5 seconds =       0.08 minutes
Total time:
	user time   =      22.54 seconds =       0.38 minutes
	system time =       0.28 seconds =       0.00 minutes
	total time  =         24 seconds =       0.40 minutes

*** tstart() called on computer06
*** at Tue Dec 12 12:39:28 2017


         ------------------------------------------------------------
                                   SCF GRAD                          
                          Rob Parrish, Justin Turney,                
                       Andy Simmonett, and Alex Sokolov              
         ------------------------------------------------------------

  ==> Geometry <==

    Molecular point group: c1
    Full point group: C1

    Geometry (in Angstrom), charge = 0, multiplicity = 1:

       Center              X                  Y                   Z               Mass       
    ------------   -----------------  -----------------  -----------------  -----------------
           O          1.009018526732    -0.009061331074     0.043121832736    15.994914619560
           O          2.465522128643    -0.124724622709     0.005837383391    15.994914619560
           H          0.692106127936    -0.797184141258    -0.433367318460     1.007825032070
           H          2.628109216689    -1.067516904959    -0.176706897666     1.007825032070

  Nuclear repulsion =   36.482578020225468

  ==> Basis Set <==

  Basis Set: CC-PVDZ
    Blend: CC-PVDZ
    Number of shells: 18
    Number of basis function: 38
    Number of Cartesian functions: 40
    Spherical Harmonics?: true
    Max angular momentum: 2

  ==> DFJKGrad: Density-Fitted SCF Gradients <==

    Gradient:                    1
    J tasked:                  Yes
    K tasked:                  Yes
    wK tasked:                  No
    OpenMP threads:              1
    Integrals threads:           1
    Memory (MB):              3006
    Schwarz Cutoff:          0E+00
    Fitting Condition:       1E-12

   => Auxiliary Basis Set <=

  Basis Set: (CC-PVDZ AUX)
    Blend: CC-PVDZ-JKFIT
    Number of shells: 66
    Number of basis function: 186
    Number of Cartesian functions: 212
    Spherical Harmonics?: true
    Max angular momentum: 3

  ==> DFT Potential <==

   => B3LYP Composite Functional <= 

    B3LYP Hybrid-GGA Exchange-Correlation Functional (VWN1-RPA)

    P.J. Stephens et. al., J. Phys. Chem., 98, 11623-11627, 1994

    Points   =           5000
    Deriv    =              1
    GGA      =           TRUE
    Meta     =          FALSE

    X_LRC        =          FALSE
    X_Hybrid     =           TRUE
    X_Alpha      =   2.000000E-01
    X_Omega      =   0.000000E+00
    C_LRC        =          FALSE
    C_Hybrid     =          FALSE
    C_Alpha      =   0.000000E+00
    C_Omega      =   0.000000E+00

   => Exchange Functionals <=

    0.8000    B3_X
    0.2000      HF 

   => Correlation Functionals <=

    0.1900 VWN3RPA_C
    0.8100   LYP_C

   => Molecular Quadrature <=

    Radial Scheme    =       TREUTLER
    Pruning Scheme   =           FLAT
    Nuclear Scheme   =       TREUTLER

    BS radius alpha  =              1
    Pruning alpha    =              1
    Radial Points    =             75
    Spherical Points =            302
    Total Points     =          88294
    Total Blocks     =             85
    Max Points       =           4692
    Max Functions    =             38


  -Total Gradient:
     Atom            X                  Y                   Z
    ------   -----------------  -----------------  -----------------
       1       -0.001437152126     0.002303147159    -0.004076068859
       2        0.001533478429    -0.001221589109     0.004487746224
       3       -0.000207441810    -0.001753460469     0.003018693139
       4        0.000111194227     0.000672785101    -0.003430034432


*** tstop() called on computer06 at Tue Dec 12 12:39:29 2017
Module time:
	user time   =       1.19 seconds =       0.02 minutes
	system time =       0.01 seconds =       0.00 minutes
	total time  =          1 seconds =       0.02 minutes
Total time:
	user time   =      23.74 seconds =       0.40 minutes
	system time =       0.30 seconds =       0.01 minutes
	total time  =         25 seconds =       0.42 minutes

			-----------------------------------------
			 OPTKING 2.0: for geometry optimizations 
			  - R.A. King,  Bethel University        
			-----------------------------------------
	At level 1: Red. Int., RFO, no backsteps, dynamic trust

	Previous internal coordinate definitions found.
	---Fragment 1 Geometry and Gradient---
	 O           1.9067686785       -0.0171234341        0.0814884542
	 O           4.6591615977       -0.2356953789        0.0110310559
	 H           1.3078910367       -1.5064597045       -0.8189455468
	 H           4.9664066669       -2.0173145926       -0.3339276424
	            -0.0014371521        0.0023031472       -0.0040760689
	             0.0015334784       -0.0012215891        0.0044877462
	            -0.0002074418       -0.0017534605        0.0030186931
	             0.0001111942        0.0006727851       -0.0034300344

	---Fragment 1 Intrafragment Coordinates---
	 - Coordinate -           - BOHR/RAD -       - ANG/DEG -
	 R(1,2)           =         2.761957	       1.461565
	 R(1,3)           =         1.840532	       0.973968
	 R(2,4)           =         1.840533	       0.973968
	 B(1,2,4)         =         1.821142	     104.343774
	 B(2,1,3)         =         1.821143	     104.343798
	*D(3,1,2,4)       =        -0.349012	     -19.996936

	Current energy   :      -151.5397111510

	Energy change for the previous step:
		Projected    :        -0.0000513938
		Actual       :        -0.0000542848
	Energy ratio indicates good step: Trust radius increased to 1.000e+00.


	Performing BFGS update.
	Previous computed or guess Hessian on step 1.
	Steps to be used in Hessian update: 3 2
	Taking RFO optimization step.
	Going to follow RFO solution 1.
	Using RFO vector 1.
	Norm of target step-size    0.00533
	Projected energy change by RFO approximation:        -0.0000100962

	Back-transformation to cartesian coordinates...
	Successfully converged to displaced geometry.

	Back-transformation to cartesian coordinates to adjust frozen coordinates...
	Successfully converged to displaced geometry.

	--- Internal Coordinate Step in ANG or DEG, aJ/ANG or AJ/DEG ---
	 ---------------------------------------------------------------------------
	   Coordinate                Previous        Force       Change         New 
	   ----------                --------       ------       ------       ------
	    1 R(1,2)          =      1.461565    -0.013643    -0.002799     1.458766
	    2 R(1,3)          =      0.973968    -0.000077    -0.000076     0.973891
	    3 R(2,4)          =      0.973968    -0.000083    -0.000076     0.973892
	    4 B(1,2,4)        =    104.343774    -0.000021    -0.026408   104.317366
	    5 B(2,1,3)        =    104.343798    -0.000021    -0.026445   104.317354
	    6 *D(3,1,2,4)     =    -19.996936     0.000000     0.000000   -19.996936
	 ---------------------------------------------------------------------------
	Successfully symmetrized geometry.

  ==> Convergence Check <==

  Measures of convergence in internal coordinates in au.
  Criteria marked as inactive (o), active & met (*), and active & unmet ( ).
  ---------------------------------------------------------------------------------------------
   Step     Total Energy     Delta E     MAX Force     RMS Force      MAX Disp      RMS Disp   
  ---------------------------------------------------------------------------------------------
    Convergence Criteria    1.00e-06 *    3.00e-04 *             o    1.20e-03 *             o
  ---------------------------------------------------------------------------------------------
      4    -151.53971115   -5.43e-05      1.66e-03      6.94e-04 o    5.29e-03      2.18e-03 o  ~
  ---------------------------------------------------------------------------------------------

	Writing optimization data to binary file.
	Structure for next step:
	Cartesian Geometry (in Angstrom)
	    O     1.0104138198  -0.0092083892   0.0432332415
	    O     2.4641296981  -0.1245434313   0.0057389625
	    H     0.6939172608  -0.7974140223  -0.4332392598
	    H     2.6262952214  -1.0673211572  -0.1768479442
			--------------------------
			 OPTKING Finished Execution 
			--------------------------

    Structure for next step:
    Molecular point group: c1
    Full point group: C1

    Geometry (in Angstrom), charge = 0, multiplicity = 1:

    O            1.010413819771    -0.009208389152     0.043233241500
    O            2.464129698094    -0.124543431349     0.005738962513
    H            0.693917260781    -0.797414022332    -0.433239259829
    H            2.626295221354    -1.067321157167    -0.176847944185

gradient() will perform analytic gradient computation.

*** tstart() called on computer06
*** at Tue Dec 12 12:39:30 2017

   => Loading Basis Set <=

    Name: CC-PVDZ
    Role: ORBITAL
    Keyword: BASIS
    atoms 1-2 entry O          line   190 file /shared/raimis/opt/miniconda/envs/htmd/share/psi4/basis/cc-pvdz.gbs 
    atoms 3-4 entry H          line    20 file /shared/raimis/opt/miniconda/envs/htmd/share/psi4/basis/cc-pvdz.gbs 


         ---------------------------------------------------------
                                   SCF
            by Justin Turney, Rob Parrish, and Andy Simmonett
                              RKS Reference
                        1 Threads,   4009 MiB Core
         ---------------------------------------------------------

  ==> Geometry <==

    Molecular point group: c1
    Full point group: C1

    Geometry (in Angstrom), charge = 0, multiplicity = 1:

       Center              X                  Y                   Z               Mass       
    ------------   -----------------  -----------------  -----------------  -----------------
           O          1.010413819771    -0.009208389152     0.043233241500    15.994914619560
           O          2.464129698094    -0.124543431349     0.005738962513    15.994914619560
           H          0.693917260781    -0.797414022332    -0.433239259829     1.007825032070
           H          2.626295221354    -1.067321157167    -0.176847944185     1.007825032070

  Running in c1 symmetry.

  Rotational constants: A =      9.95738  B =      0.13871  C =      0.13691 [cm^-1]
  Rotational constants: A = 298514.78175  B =   4158.39342  C =   4104.53915 [MHz]
  Nuclear repulsion =   36.534537020226807

  Charge       = 0
  Multiplicity = 1
  Electrons    = 18
  Nalpha       = 9
  Nbeta        = 9

  ==> Algorithm <==

  SCF Algorithm Type is DF.
  DIIS enabled.
  MOM disabled.
  Fractional occupation disabled.
  Guess Type is READ.
  Energy threshold   = 1.00e-08
  Density threshold  = 1.00e-08
  Integral threshold = 0.00e+00

  ==> Primary Basis <==

  Basis Set: CC-PVDZ
    Blend: CC-PVDZ
    Number of shells: 18
    Number of basis function: 38
    Number of Cartesian functions: 40
    Spherical Harmonics?: true
    Max angular momentum: 2

  ==> DFT Potential <==

   => B3LYP Composite Functional <= 

    B3LYP Hybrid-GGA Exchange-Correlation Functional (VWN1-RPA)

    P.J. Stephens et. al., J. Phys. Chem., 98, 11623-11627, 1994

    Points   =           5000
    Deriv    =              1
    GGA      =           TRUE
    Meta     =          FALSE

    X_LRC        =          FALSE
    X_Hybrid     =           TRUE
    X_Alpha      =   2.000000E-01
    X_Omega      =   0.000000E+00
    C_LRC        =          FALSE
    C_Hybrid     =          FALSE
    C_Alpha      =   0.000000E+00
    C_Omega      =   0.000000E+00

   => Exchange Functionals <=

    0.8000    B3_X
    0.2000      HF 

   => Correlation Functionals <=

    0.1900 VWN3RPA_C
    0.8100   LYP_C

   => Molecular Quadrature <=

    Radial Scheme    =       TREUTLER
    Pruning Scheme   =           FLAT
    Nuclear Scheme   =       TREUTLER

    BS radius alpha  =              1
    Pruning alpha    =              1
    Radial Points    =             75
    Spherical Points =            302
    Total Points     =          88294
    Total Blocks     =             86
    Max Points       =           4700
    Max Functions    =             38

   => -D3ZERO: Empirical Dispersion <=

    Grimme's -D3 (zero-damping) Dispersion Correction
    Grimme S.; Antony J.; Ehrlich S.; Krieg H. (2010), J. Chem. Phys., 132: 154104

        S6 =   1.000000E+00
        S8 =   1.703000E+00
       SR6 =   1.261000E+00
    ALPHA6 =   1.400000E+01

   => Loading Basis Set <=

    Name: (CC-PVDZ AUX)
    Role: JKFIT
    Keyword: DF_BASIS_SCF
    atoms 1-2 entry O          line   220 file /shared/raimis/opt/miniconda/envs/htmd/share/psi4/basis/cc-pvdz-jkfit.gbs 
    atoms 3-4 entry H          line    50 file /shared/raimis/opt/miniconda/envs/htmd/share/psi4/basis/cc-pvdz-jkfit.gbs 

  Reading orbitals from file 180, no projection.

  ==> Pre-Iterations <==

   -------------------------------------------------------
    Irrep   Nso     Nmo     Nalpha   Nbeta   Ndocc  Nsocc
   -------------------------------------------------------
     A         38      38       0       0       0       0
   -------------------------------------------------------
    Total      38      38       9       9       9       0
   -------------------------------------------------------

  ==> Integral Setup <==

  ==> DFJK: Density-Fitted J/K Matrices <==

    J tasked:                  Yes
    K tasked:                  Yes
    wK tasked:                  No
    OpenMP threads:              1
    Integrals threads:           1
    Memory (MB):              3006
    Algorithm:                Core
    Integral Cache:           NONE
    Schwarz Cutoff:          1E-12
    Fitting Condition:       1E-12

   => Auxiliary Basis Set <=

  Basis Set: (CC-PVDZ AUX)
    Blend: CC-PVDZ-JKFIT
    Number of shells: 66
    Number of basis function: 186
    Number of Cartesian functions: 212
    Spherical Harmonics?: true
    Max angular momentum: 3

  Minimum eigenvalue in the overlap matrix is 2.4953809637E-02.
  Using Symmetric Orthogonalization.

  SCF Guess: Orbitals guess was supplied from a previous computation.

  ==> Iterations <==

                           Total Energy        Delta E     RMS |[F,P]|

   @DF-RKS iter   0:  -151.54106415245280   -1.51541e+02   1.42764e-04 
   @DF-RKS iter   1:  -151.53971505016656    1.34910e-03   3.84860e-05 
   @DF-RKS iter   2:  -151.53971555015221   -4.99986e-07   1.97327e-05 DIIS
   @DF-RKS iter   3:  -151.53971573318498   -1.83033e-07   3.53275e-06 DIIS
   @DF-RKS iter   4:  -151.53971573984069   -6.65571e-09   2.70025e-07 DIIS
   @DF-RKS iter   5:  -151.53971573989205   -5.13580e-11   4.32814e-08 DIIS
   @DF-RKS iter   6:  -151.53971573989313   -1.08002e-12   8.71138e-09 DIIS

  ==> Post-Iterations <==

    Orbital Energies (a.u.)
    -----------------------

    Doubly Occupied:                                                      

       1A    -19.190074     2A    -19.190045     3A     -1.108371  
       4A     -0.893758     5A     -0.562654     6A     -0.418463  
       7A     -0.404324     8A     -0.361982     9A     -0.248474  

    Virtual:                                                              

      10A      0.011576    11A      0.021903    12A      0.128254  
      13A      0.553449    14A      0.577366    15A      0.859668  
      16A      0.869147    17A      0.941254    18A      0.941477  
      19A      0.985119    20A      1.061626    21A      1.250728  
      22A      1.265469    23A      1.334194    24A      1.501221  
      25A      1.547140    26A      1.809201    27A      2.028839  
      28A      2.096892    29A      2.320819    30A      2.377179  
      31A      2.626955    32A      2.861069    33A      2.927419  
      34A      2.980818    35A      3.178782    36A      3.526990  
      37A      3.543741    38A      3.792192  

    Final Occupation by Irrep:
              A 
    DOCC [     9 ]

  Energy converged.

  @DF-RKS Final Energy:  -151.53971573989313

   => Energetics <=

    Nuclear Repulsion Energy =             36.5345370202268072
    One-Electron Energy =                -281.0108669975468842
    Two-Electron Energy =                 107.3943883782474558
    DFT Exchange-Correlation Energy =     -14.4574760508205031
    Empirical Dispersion Energy =          -0.0002980900000000
    PCM Polarization Energy =               0.0000000000000000
    EFP Energy =                            0.0000000000000000
    Total Energy =                       -151.5397157398930972



Properties will be evaluated at   0.000000,   0.000000,   0.000000 Bohr

Properties computed using the SCF density matrix

  Nuclear Dipole Moment: (a.u.)
     X:    58.8018      Y:    -5.5459      Z:    -0.4125

  Electronic Dipole Moment: (a.u.)
     X:   -58.9038      Y:     4.4019      Z:    -0.0230

  Dipole Moment: (a.u.)
     X:    -0.1020      Y:    -1.1440      Z:    -0.4356     Total:     1.2283

  Dipole Moment: (Debye)
     X:    -0.2592      Y:    -2.9076      Z:    -1.1071     Total:     3.1220


*** tstop() called on computer06 at Tue Dec 12 12:39:33 2017
Module time:
	user time   =       3.44 seconds =       0.06 minutes
	system time =       0.03 seconds =       0.00 minutes
	total time  =          3 seconds =       0.05 minutes
Total time:
	user time   =      27.20 seconds =       0.45 minutes
	system time =       0.34 seconds =       0.01 minutes
	total time  =         29 seconds =       0.48 minutes

*** tstart() called on computer06
*** at Tue Dec 12 12:39:33 2017


         ------------------------------------------------------------
                                   SCF GRAD                          
                          Rob Parrish, Justin Turney,                
                       Andy Simmonett, and Alex Sokolov              
         ------------------------------------------------------------

  ==> Geometry <==

    Molecular point group: c1
    Full point group: C1

    Geometry (in Angstrom), charge = 0, multiplicity = 1:

       Center              X                  Y                   Z               Mass       
    ------------   -----------------  -----------------  -----------------  -----------------
           O          1.010413819771    -0.009208389152     0.043233241500    15.994914619560
           O          2.464129698094    -0.124543431349     0.005738962513    15.994914619560
           H          0.693917260781    -0.797414022332    -0.433239259829     1.007825032070
           H          2.626295221354    -1.067321157167    -0.176847944185     1.007825032070

  Nuclear repulsion =   36.534537020226807

  ==> Basis Set <==

  Basis Set: CC-PVDZ
    Blend: CC-PVDZ
    Number of shells: 18
    Number of basis function: 38
    Number of Cartesian functions: 40
    Spherical Harmonics?: true
    Max angular momentum: 2

  ==> DFJKGrad: Density-Fitted SCF Gradients <==

    Gradient:                    1
    J tasked:                  Yes
    K tasked:                  Yes
    wK tasked:                  No
    OpenMP threads:              1
    Integrals threads:           1
    Memory (MB):              3006
    Schwarz Cutoff:          0E+00
    Fitting Condition:       1E-12

   => Auxiliary Basis Set <=

  Basis Set: (CC-PVDZ AUX)
    Blend: CC-PVDZ-JKFIT
    Number of shells: 66
    Number of basis function: 186
    Number of Cartesian functions: 212
    Spherical Harmonics?: true
    Max angular momentum: 3

  ==> DFT Potential <==

   => B3LYP Composite Functional <= 

    B3LYP Hybrid-GGA Exchange-Correlation Functional (VWN1-RPA)

    P.J. Stephens et. al., J. Phys. Chem., 98, 11623-11627, 1994

    Points   =           5000
    Deriv    =              1
    GGA      =           TRUE
    Meta     =          FALSE

    X_LRC        =          FALSE
    X_Hybrid     =           TRUE
    X_Alpha      =   2.000000E-01
    X_Omega      =   0.000000E+00
    C_LRC        =          FALSE
    C_Hybrid     =          FALSE
    C_Alpha      =   0.000000E+00
    C_Omega      =   0.000000E+00

   => Exchange Functionals <=

    0.8000    B3_X
    0.2000      HF 

   => Correlation Functionals <=

    0.1900 VWN3RPA_C
    0.8100   LYP_C

   => Molecular Quadrature <=

    Radial Scheme    =       TREUTLER
    Pruning Scheme   =           FLAT
    Nuclear Scheme   =       TREUTLER

    BS radius alpha  =              1
    Pruning alpha    =              1
    Radial Points    =             75
    Spherical Points =            302
    Total Points     =          88294
    Total Blocks     =             86
    Max Points       =           4700
    Max Functions    =             38


  -Total Gradient:
     Atom            X                  Y                   Z
    ------   -----------------  -----------------  -----------------
       1       -0.000034940013     0.002243941437    -0.004070635659
       2        0.000141705023    -0.001044793261     0.004527101157
       3       -0.000000076552    -0.001836473117     0.003010254093
       4       -0.000106594730     0.000638376113    -0.003466319386


*** tstop() called on computer06 at Tue Dec 12 12:39:35 2017
Module time:
	user time   =       1.23 seconds =       0.02 minutes
	system time =       0.01 seconds =       0.00 minutes
	total time  =          2 seconds =       0.03 minutes
Total time:
	user time   =      28.43 seconds =       0.47 minutes
	system time =       0.36 seconds =       0.01 minutes
	total time  =         31 seconds =       0.52 minutes

			-----------------------------------------
			 OPTKING 2.0: for geometry optimizations 
			  - R.A. King,  Bethel University        
			-----------------------------------------
	At level 1: Red. Int., RFO, no backsteps, dynamic trust

	Previous internal coordinate definitions found.
	---Fragment 1 Geometry and Gradient---
	 O           1.9094054002       -0.0174013336        0.0816989863
	 O           4.6565302853       -0.2353529769        0.0108450674
	 H           1.3113135818       -1.5068941167       -0.8187035511
	 H           4.9629787125       -2.0169446829       -0.3341941817
	            -0.0000349400        0.0022439414       -0.0040706357
	             0.0001417050       -0.0010447933        0.0045271012
	            -0.0000000766       -0.0018364731        0.0030102541
	            -0.0001065947        0.0006383761       -0.0034663194

	---Fragment 1 Intrafragment Coordinates---
	 - Coordinate -           - BOHR/RAD -       - ANG/DEG -
	 R(1,2)           =         2.756668	       1.458766
	 R(1,3)           =         1.840388	       0.973891
	 R(2,4)           =         1.840389	       0.973892
	 B(1,2,4)         =         1.820682	     104.317366
	 B(2,1,3)         =         1.820681	     104.317354
	*D(3,1,2,4)       =        -0.349012	     -19.996936

	Current energy   :      -151.5397157399

	Energy change for the previous step:
		Projected    :        -0.0000100962
		Actual       :        -0.0000045889

	Performing BFGS update.
	Previous computed or guess Hessian on step 1.
	Steps to be used in Hessian update: 4 3
	Taking RFO optimization step.
	Going to follow RFO solution 1.
	Using RFO vector 1.
	Norm of target step-size    0.00102
	Projected energy change by RFO approximation:        -0.0000002543

	Back-transformation to cartesian coordinates...
	Successfully converged to displaced geometry.

	Back-transformation to cartesian coordinates to adjust frozen coordinates...
	Successfully converged to displaced geometry.

	--- Internal Coordinate Step in ANG or DEG, aJ/ANG or AJ/DEG ---
	 ---------------------------------------------------------------------------
	   Coordinate                Previous        Force       Change         New 
	   ----------                --------       ------       ------       ------
	    1 R(1,2)          =      1.458766    -0.000333    -0.000200     1.458566
	    2 R(1,3)          =      0.973891    -0.000111    -0.000007     0.973884
	    3 R(2,4)          =      0.973892    -0.000116    -0.000007     0.973884
	    4 B(1,2,4)        =    104.317366     0.000010     0.038588   104.355954
	    5 B(2,1,3)        =    104.317354     0.000010     0.038592   104.355946
	    6 *D(3,1,2,4)     =    -19.996936     0.000000    -0.000000   -19.996936
	 ---------------------------------------------------------------------------
	Successfully symmetrized geometry.

  ==> Convergence Check <==

  Measures of convergence in internal coordinates in au.
  Criteria marked as inactive (o), active & met (*), and active & unmet ( ).
  ---------------------------------------------------------------------------------------------
   Step     Total Energy     Delta E     MAX Force     RMS Force      MAX Disp      RMS Disp   
  ---------------------------------------------------------------------------------------------
    Convergence Criteria    1.00e-06 *    3.00e-04 *             o    1.20e-03 *             o
  ---------------------------------------------------------------------------------------------
      5    -151.53971574   -4.59e-06      1.34e-04 *    7.95e-05 o    6.74e-04 *    4.18e-04 o  ~
  ---------------------------------------------------------------------------------------------


  **** Optimization is complete! (in 5 steps) ****

  ==> Optimization Summary <==

  Measures of convergence in internal coordinates in au.
  --------------------------------------------------------------------------------------------------------------- ~
   Step         Total Energy             Delta E       MAX Force       RMS Force        MAX Disp        RMS Disp  ~
  --------------------------------------------------------------------------------------------------------------- ~
      1    -151.535116265307   -151.535116265307      0.03448925      0.02245434      0.19662371      0.11642345  ~
      2    -151.538216079181     -0.003099813874      0.02006238      0.01216397      0.05559197      0.03523547  ~
      3    -151.539656866253     -0.001440787072      0.00556706      0.00256834      0.01149214      0.00562075  ~
      4    -151.539711151028     -0.000054284775      0.00165594      0.00069404      0.00528871      0.00217706  ~
      5    -151.539715739893     -0.000004588865      0.00013404      0.00007952      0.00067355      0.00041844  ~
  --------------------------------------------------------------------------------------------------------------- ~

	Writing optimization data to binary file.
	Final energy is   -151.5397157398931
	Final (previous) structure:
	Cartesian Geometry (in Angstrom)
	    O     1.0104138198  -0.0092083892   0.0432332415
	    O     2.4641296981  -0.1245434313   0.0057389625
	    H     0.6939172608  -0.7974140223  -0.4332392598
	    H     2.6262952214  -1.0673211572  -0.1768479442
	Saving final (previous) structure.
			--------------------------
			 OPTKING Finished Execution 
			--------------------------

    Final optimized geometry and variables:
    Molecular point group: c1
    Full point group: C1

    Geometry (in Angstrom), charge = 0, multiplicity = 1:

    O            1.010413819771    -0.009208389152     0.043233241500
    O            2.464129698094    -0.124543431349     0.005738962513
    H            0.693917260781    -0.797414022332    -0.433239259829
    H            2.626295221354    -1.067321157167    -0.176847944185

	Cleaning optimization helper files.


Properties will be evaluated at   0.000000,   0.000000,   0.000000 Bohr

Properties computed using the  density matrix

  Nuclear Dipole Moment: (a.u.)
     X:    58.8018      Y:    -5.5459      Z:    -0.4125

  Electronic Dipole Moment: (a.u.)
     X:   -58.9038      Y:     4.4019      Z:    -0.0230

  Dipole Moment: (a.u.)
     X:    -0.1020      Y:    -1.1440      Z:    -0.4356     Total:     1.2283

  Dipole Moment: (Debye)
     X:    -0.2592      Y:    -2.9076      Z:    -1.1071     Total:     3.1220

  Quadrupole Moment: (Debye Ang)
    XX:   -11.3909     YY:    -8.4544     ZZ:   -11.8041
    XY:    -5.0895     XZ:    -1.2902     YZ:     1.2282

  Traceless Quadrupole Moment: (Debye Ang)
    XX:    -0.8411     YY:     2.0954     ZZ:    -1.2543
    XY:    -5.0895     XZ:    -1.2902     YZ:     1.2282

  Mulliken Charges: (a.u.)
   Center  Symbol    Alpha    Beta     Spin     Total
       1     O     4.08099  4.08099  0.00000 -0.16198
       2     O     4.08099  4.08099  0.00000 -0.16198
       3     H     0.41901  0.41901  0.00000  0.16198
       4     H     0.41901  0.41901  0.00000  0.16198

   Total alpha =  9.00000, Total beta =  9.00000, Total charge = -0.00000


*** Psi4 exiting successfully. Buy a developer a beer!
