    -----------------------------------------------------------------------
          Psi4: An Open-Source Ab Initio Electronic Structure Package
                              Psi4 (no tag) Driver

                          Git: Rev {detached?}  

    J. M. Turney, A. C. Simmonett, R. M. Parrish, E. G. Hohenstein,
    F. A. Evangelista, J. T. Fermann, B. J. Mintz, L. A. Burns, J. J. Wilke,
    M. L. Abrams, N. J. Russ, M. L. Leininger, C. L. Janssen, E. T. Seidl,
    W. D. Allen, H. F. Schaefer, R. A. King, E. F. Valeev, C. D. Sherrill,
    and T. D. Crawford, WIREs Comput. Mol. Sci. 2, 556-565 (2012)
    (doi: 10.1002/wcms.93)

                         Additional Contributions by
    A. E. DePrince, M. Saitow, U. Bozkaya, A. Yu. Sokolov
    -----------------------------------------------------------------------


    Psi4 started on: Tue Jul  5 17:48:38 2016

    Process ID:   6149
    PSI4DATADIR: /export131/home/mjharvey/miniconda3/share
    Memory level set to 256.000 MB

  ==> Input File <==

--------------------------------------------------------------------------
set {
	reference rhf
	basis 6-31G*
}


set_num_threads( 1 )
memory 2 gb

molecule MOL {
0 1

H	 -4.318063	 5.927733	 -0.999085
C	 -4.616059	 4.897944	 -0.765943
C	 -4.877056	 4.624962	 0.693500
O	 -4.711430	 4.092674	 -1.634387
C	 -4.212348	 3.328914	 1.177938
H	 -4.543786	 5.482254	 1.266815
H	 -5.956319	 4.541034	 0.815165
C	 -4.824452	 2.064644	 0.569457
H	 -3.155354	 3.372026	 0.932606
H	 -4.268953	 3.278041	 2.264199
C	 -6.253274	 1.803461	 1.050150
H	 -4.196502	 1.211006	 0.816092
H	 -4.819332	 2.137921	 -0.516427
C	 -7.144331	 3.045428	 0.963640
H	 -6.681118	 0.996573	 0.460562
H	 -6.228227	 1.450490	 2.080280
C	 -8.476090	 2.930578	 1.714174
H	 -7.340708	 3.275648	 -0.082366
H	 -6.595566	 3.895780	 1.362978
C	 -9.441535	 1.892099	 1.140506
H	 -8.962502	 3.902772	 1.700334
H	 -8.281521	 2.704290	 2.760528
H	 -9.641833	 2.084110	 0.089658
H	 -9.050397	 0.883621	 1.223924
H	 -10.390864	 1.916855	 1.666962

	symmetry c1
}
set optking {
	frozen_dihedral = ("
		6 3 5 8,
		6 3 2 4,
		3 5 8 12,
		12 8 11 14,
		20 17 14 18
	")
}

ee = energy('scf')
oeprop('DIPOLE', 'QUADRUPOLE', 'MULLIKEN_CHARGES')
f=open( 'psi4out.xyz', 'w' )
f.write( "25  " )
f.write( str(ee) + "\n" )
f.write( MOL.save_string_xyz() )
f.close()
--------------------------------------------------------------------------

  Memory set to   2.000 GiB by Python script.

*** tstart() called on cx1-3-1-3.cx1.hpc.ic.ac.uk
*** at Tue Jul  5 17:48:39 2016


         ---------------------------------------------------------
                                   SCF
            by Justin Turney, Rob Parrish, and Andy Simmonett
                              RHF Reference
                        1 Threads,   2000 MiB Core
         ---------------------------------------------------------

  ==> Geometry <==

    Molecular point group: c1
    Full point group: C1

    Geometry (in Angstrom), charge = 0, multiplicity = 1:

       Center              X                  Y                   Z               Mass       
    ------------   -----------------  -----------------  -----------------  -----------------
           H          1.760208792496     2.743637106959    -1.532532650493     1.007825032070
           C          1.462212792496     1.713848106959    -1.299390650493    12.000000000000
           C          1.201215792496     1.440866106959     0.160052349507    12.000000000000
           O          1.366841792496     0.908578106959    -2.167834650493    15.994914619560
           C          1.865923792496     0.144818106959     0.644490349507    12.000000000000
           H          1.534485792496     2.298158106959     0.733367349507     1.007825032070
           H          0.121952792496     1.356938106959     0.281717349507     1.007825032070
           C          1.253819792496    -1.119451893041     0.036009349507    12.000000000000
           H          2.922917792496     0.187930106959     0.399158349507     1.007825032070
           H          1.809318792496     0.093945106959     1.730751349507     1.007825032070
           C         -0.175002207504    -1.380634893041     0.516702349507    12.000000000000
           H          1.881769792496    -1.973089893041     0.282644349507     1.007825032070
           H          1.258939792496    -1.046174893041    -1.049874650493     1.007825032070
           C         -1.066059207504    -0.138667893041     0.430192349507    12.000000000000
           H         -0.602846207504    -2.187522893041    -0.072885650493     1.007825032070
           H         -0.149955207504    -1.733605893041     1.546832349507     1.007825032070
           C         -2.397818207504    -0.253517893041     1.180726349507    12.000000000000
           H         -1.262436207504     0.091552106959    -0.615813650493     1.007825032070
           H         -0.517294207504     0.711684106959     0.829530349507     1.007825032070
           C         -3.363263207504    -1.291996893041     0.607058349507    12.000000000000
           H         -2.884230207504     0.718676106959     1.166886349507     1.007825032070
           H         -2.203249207504    -0.479805893041     2.227080349507     1.007825032070
           H         -3.563561207504    -1.099985893041    -0.443789650493     1.007825032070
           H         -2.972125207504    -2.300474893041     0.690476349507     1.007825032070
           H         -4.312592207504    -1.267240893041     1.133514349507     1.007825032070

  Running in c1 symmetry.

  Rotational constants: A =      0.08579  B =      0.02700  C =      0.02504 [cm^-1]
  Rotational constants: A =   2572.02709  B =    809.38176  C =    750.78834 [MHz]
  Nuclear repulsion =  474.204301795776132

  Charge       = 0
  Multiplicity = 1
  Electrons    = 72
  Nalpha       = 36
  Nbeta        = 36

  ==> Algorithm <==

  SCF Algorithm Type is DF.
  DIIS enabled.
  MOM disabled.
  Fractional occupation disabled.
  Guess Type is CORE.
  Energy threshold   = 1.00e-06
  Density threshold  = 1.00e-06
  Integral threshold = 0.00e+00

  ==> Primary Basis <==

  Basis Set: 6-31G*
    Number of shells: 86
    Number of basis function: 167
    Number of Cartesian functions: 167
    Spherical Harmonics?: false
    Max angular momentum: 2

  ==> Pre-Iterations <==

   -------------------------------------------------------
    Irrep   Nso     Nmo     Nalpha   Nbeta   Ndocc  Nsocc
   -------------------------------------------------------
     A        167     167       0       0       0       0
   -------------------------------------------------------
    Total     167     167      36      36      36       0
   -------------------------------------------------------

 OEINTS: Overlap, kinetic, potential, dipole, and quadrupole integrals
         stored in file 35.

  ==> Integral Setup <==

  ==> DFJK: Density-Fitted J/K Matrices <==

    J tasked:                  Yes
    K tasked:                  Yes
    wK tasked:                  No
    OpenMP threads:              1
    Integrals threads:           1
    Memory (MB):              1430
    Algorithm:                Core
    Integral Cache:           NONE
    Schwarz Cutoff:          1E-12
    Fitting Condition:       1E-12

   => Auxiliary Basis Set <=

  Basis Set: 
    Number of shells: 360
    Number of basis function: 1129
    Number of Cartesian functions: 1129
    Spherical Harmonics?: false
    Max angular momentum: 3

  Minimum eigenvalue in the overlap matrix is 3.3500871643E-03.
  Using Symmetric Orthogonalization.
  SCF Guess: Core (One-Electron) Hamiltonian.

  ==> Iterations <==

                           Total Energy        Delta E     RMS |[F,P]|

   @DF-RHF iter   1:  -285.71097596680329   -2.85711e+02   6.16968e-02 
   @DF-RHF iter   2:   -26.10110053675379    2.59610e+02   6.96107e-02 DIIS
   @DF-RHF iter   3:  -292.83707961122445   -2.66736e+02   4.62492e-02 DIIS
   @DF-RHF iter   4:  -258.87854387164521    3.39585e+01   6.10796e-02 DIIS
   @DF-RHF iter   5:  -385.86990576398114   -1.26991e+02   9.02770e-03 DIIS
   @DF-RHF iter   6:  -386.58120803461611   -7.11302e-01   6.40795e-03 DIIS
   @DF-RHF iter   7:  -387.03660498523641   -4.55397e-01   1.06598e-03 DIIS
   @DF-RHF iter   8:  -387.05294261036693   -1.63376e-02   2.76999e-04 DIIS
   @DF-RHF iter   9:  -387.05446918722396   -1.52658e-03   8.05095e-05 DIIS
   @DF-RHF iter  10:  -387.05462897656582   -1.59789e-04   2.48018e-05 DIIS
   @DF-RHF iter  11:  -387.05465008191811   -2.11054e-05   8.44243e-06 DIIS
   @DF-RHF iter  12:  -387.05465270442221   -2.62250e-06   4.10039e-06 DIIS
   @DF-RHF iter  13:  -387.05465357100718   -8.66585e-07   1.47213e-06 DIIS
   @DF-RHF iter  14:  -387.05465369360388   -1.22597e-07   6.93958e-07 DIIS

  ==> Post-Iterations <==

    Orbital Energies (a.u.)
    -----------------------

    Doubly Occupied:                                                      

       1A    -20.560178     2A    -11.325697     3A    -11.226615  
       4A    -11.220323     5A    -11.215530     6A    -11.212455  
       7A    -11.209979     8A    -11.207262     9A    -11.206574  
      10A     -1.403184    11A     -1.109224    12A     -1.056853  
      13A     -1.006124    14A     -0.953455    15A     -0.881127  
      16A     -0.821066    17A     -0.787198    18A     -0.765544  
      19A     -0.692275    20A     -0.671137    21A     -0.623169  
      22A     -0.608445    23A     -0.601827    24A     -0.579591  
      25A     -0.574519    26A     -0.562596    27A     -0.531634  
      28A     -0.524703    29A     -0.504888    30A     -0.497046  
      31A     -0.481216    32A     -0.480734    33A     -0.458403  
      34A     -0.440986    35A     -0.417965    36A     -0.388661  

    Virtual:                                                              

      37A      0.159619    38A      0.230433    39A      0.239865  
      40A      0.259639    41A      0.273738    42A      0.279458  
      43A      0.299008    44A      0.306801    45A      0.315068  
      46A      0.319671    47A      0.320459    48A      0.341203  
      49A      0.345497    50A      0.354329    51A      0.360372  
      52A      0.361717    53A      0.380622    54A      0.395614  
      55A      0.422369    56A      0.436647    57A      0.452193  
      58A      0.464677    59A      0.478053    60A      0.483637  
      61A      0.530955    62A      0.694959    63A      0.716808  
      64A      0.733821    65A      0.739599    66A      0.748216  
      67A      0.771728    68A      0.791219    69A      0.808993  
      70A      0.824430    71A      0.865090    72A      0.888857  
      73A      0.910083    74A      0.927956    75A      0.940122  
      76A      0.945681    77A      0.965987    78A      0.992311  
      79A      1.009364    80A      1.034720    81A      1.053495  
      82A      1.082875    83A      1.104338    84A      1.118865  
      85A      1.125167    86A      1.145563    87A      1.160140  
      88A      1.162051    89A      1.167000    90A      1.174491  
      91A      1.188296    92A      1.192280    93A      1.202336  
      94A      1.212533    95A      1.223969    96A      1.235848  
      97A      1.251130    98A      1.266999    99A      1.274284  
     100A      1.297830   101A      1.303450   102A      1.327794  
     103A      1.368208   104A      1.388510   105A      1.425606  
     106A      1.488127   107A      1.520624   108A      1.593183  
     109A      1.670089   110A      1.728540   111A      1.750776  
     112A      1.778416   113A      1.796202   114A      1.816776  
     115A      1.863298   116A      1.883756   117A      1.944955  
     118A      1.959335   119A      1.994847   120A      2.026064  
     121A      2.088370   122A      2.125743   123A      2.141559  
     124A      2.169318   125A      2.198226   126A      2.218229  
     127A      2.227622   128A      2.267204   129A      2.282116  
     130A      2.307910   131A      2.318127   132A      2.355902  
     133A      2.369672   134A      2.406318   135A      2.442159  
     136A      2.473676   137A      2.527166   138A      2.571274  
     139A      2.585140   140A      2.609336   141A      2.653551  
     142A      2.687545   143A      2.692645   144A      2.745417  
     145A      2.752469   146A      2.784075   147A      2.794939  
     148A      2.810780   149A      2.865345   150A      2.957010  
     151A      2.964401   152A      2.983097   153A      3.015838  
     154A      3.075547   155A      3.101247   156A      3.165991  
     157A      3.263999   158A      3.383465   159A      4.352609  
     160A      4.535081   161A      4.586145   162A      4.653398  
     163A      4.770039   164A      4.816499   165A      4.901971  
     166A      4.982426   167A      5.042198  

    Final Occupation by Irrep:
              A 
    DOCC [    36 ]

  Energy converged.

  @DF-RHF Final Energy:  -387.05465369360388

   => Energetics <=

    Nuclear Repulsion Energy =            474.2043017957761322
    One-Electron Energy =               -1464.9013326311883247
    Two-Electron Energy =                 603.6423771418118349
    DFT Exchange-Correlation Energy =       0.0000000000000000
    Empirical Dispersion Energy =           0.0000000000000000
    PCM Polarization Energy =               0.0000000000000000
    EFP Energy =                            0.0000000000000000
    Total Energy =                       -387.0546536936003577

    Alert: EFP and PCM quantities not currently incorporated into SCF psivars.

Properties will be evaluated at   0.000000,   0.000000,   0.000000 Bohr
  ==> Properties <==


Properties computed using the SCF density matrix

  Nuclear Dipole Moment: (a.u.)
     X:    -6.7232      Y:    -3.6381      Z:     6.8397

  Electronic Dipole Moment: (a.u.)
     X:     6.7108      Y:     4.1650      Z:    -5.9558

  Dipole Moment: (a.u.)
     X:    -0.0124      Y:     0.5269      Z:     0.8839     Total:     1.0291

  Dipole Moment: (Debye)
     X:    -0.0316      Y:     1.3393      Z:     2.2466     Total:     2.6157


  Saving occupied orbitals to File 180.

*** tstop() called on cx1-3-1-3.cx1.hpc.ic.ac.uk at Tue Jul  5 17:49:03 2016
Module time:
	user time   =      23.22 seconds =       0.39 minutes
	system time =       0.19 seconds =       0.00 minutes
	total time  =         24 seconds =       0.40 minutes
Total time:
	user time   =      23.22 seconds =       0.39 minutes
	system time =       0.19 seconds =       0.00 minutes
	total time  =         24 seconds =       0.40 minutes


Properties will be evaluated at   0.000000,   0.000000,   0.000000 Bohr

Properties computed using the  density matrix

  Nuclear Dipole Moment: (a.u.)
     X:    -6.7232      Y:    -3.6381      Z:     6.8397

  Electronic Dipole Moment: (a.u.)
     X:     6.7108      Y:     4.1650      Z:    -5.9558

  Dipole Moment: (a.u.)
     X:    -0.0124      Y:     0.5269      Z:     0.8839     Total:     1.0291

  Dipole Moment: (Debye)
     X:    -0.0316      Y:     1.3393      Z:     2.2466     Total:     2.6157

  Quadrupole Moment: (Debye Ang)
    XX:   -58.6365     YY:   -54.6226     ZZ:   -65.7843
    XY:     1.4813     XZ:     3.2073     YZ:     0.3606

  Traceless Quadrupole Moment: (Debye Ang)
    XX:     1.0446     YY:     5.0585     ZZ:    -6.1032
    XY:     1.4813     XZ:     3.2073     YZ:     0.3606

  Mulliken Charges: (a.u.)
   Center  Symbol    Alpha    Beta     Spin     Total
       1     H     0.42801  0.42801  0.00000  0.14398
       2     C     2.83680  2.83680  0.00000  0.32640
       3     C     3.21824  3.21824  0.00000 -0.43648
       4     O     4.24052  4.24052  0.00000 -0.48104
       5     C     3.16348  3.16348  0.00000 -0.32696
       6     H     0.41314  0.41314  0.00000  0.17372
       7     H     0.39844  0.39844  0.00000  0.20312
       8     C     3.16544  3.16544  0.00000 -0.33087
       9     H     0.41359  0.41359  0.00000  0.17283
      10     H     0.41743  0.41743  0.00000  0.16514
      11     C     3.15063  3.15063  0.00000 -0.30126
      12     H     0.42114  0.42114  0.00000  0.15773
      13     H     0.39154  0.39154  0.00000  0.21692
      14     C     3.17009  3.17009  0.00000 -0.34017
      15     H     0.41700  0.41700  0.00000  0.16600
      16     H     0.42591  0.42591  0.00000  0.14818
      17     C     3.14724  3.14724  0.00000 -0.29448
      18     H     0.41488  0.41488  0.00000  0.17025
      19     H     0.41641  0.41641  0.00000  0.16718
      20     C     3.24132  3.24132  0.00000 -0.48265
      21     H     0.42397  0.42397  0.00000  0.15206
      22     H     0.42399  0.42399  0.00000  0.15201
      23     H     0.42144  0.42144  0.00000  0.15712
      24     H     0.41931  0.41931  0.00000  0.16138
      25     H     0.42005  0.42005  0.00000  0.15989

   Total alpha = 36.00000, Total beta = 36.00000, Total charge =  0.00000


*** PSI4 exiting successfully. Buy a developer a beer!
