    -----------------------------------------------------------------------
          Psi4: An Open-Source Ab Initio Electronic Structure Package
                              Psi4 (no tag) Driver

                          Git: Rev {detached?}  

    J. M. Turney, A. C. Simmonett, R. M. Parrish, E. G. Hohenstein,
    F. A. Evangelista, J. T. Fermann, B. J. Mintz, L. A. Burns, J. J. Wilke,
    M. L. Abrams, N. J. Russ, M. L. Leininger, C. L. Janssen, E. T. Seidl,
    W. D. Allen, H. F. Schaefer, R. A. King, E. F. Valeev, C. D. Sherrill,
    and T. D. Crawford, WIREs Comput. Mol. Sci. 2, 556-565 (2012)
    (doi: 10.1002/wcms.93)

                         Additional Contributions by
    A. E. DePrince, M. Saitow, U. Bozkaya, A. Yu. Sokolov
    -----------------------------------------------------------------------


    Psi4 started on: Tue Jul  5 16:34:52 2016

    Process ID:  29671
    PSI4DATADIR: /export131/home/mjharvey/miniconda3/share
    Memory level set to 256.000 MB

  ==> Input File <==

--------------------------------------------------------------------------
set {
	reference rhf
	basis 6-31G*
}


set_num_threads( 1 )
memory 2 gb

molecule MOL {
0 1

H	 -1.676090	 0.317094	 -2.259070
C	 -1.227619	 0.151024	 -1.299539
C	 -1.939961	 0.406990	 -0.081108
C	 0.027169	 -0.306240	 -1.200376
H	 -2.949690	 0.774875	 -0.127499
C	 -1.357978	 0.191622	 1.107326
H	 0.627462	 -0.522417	 -2.063695
N	 0.640212	 -0.532897	 -0.000111
H	 -1.859323	 0.371542	 2.038260
C	 0.007439	 -0.306006	 1.214959
C	 2.010177	 -1.032049	 0.000042
O	 0.566026	 -0.512571	 2.263538
H	 2.187698	 -1.635381	 -0.882279
H	 2.677579	 -0.189247	 -0.001871
H	 2.188882	 -1.632203	 0.884288

	symmetry c1
}
ee = energy('scf')
oeprop('DIPOLE', 'QUADRUPOLE', 'MULLIKEN_CHARGES')
f=open( 'psi4out.xyz', 'w' )
f.write( "15  " )
f.write( str(ee) + "\n" )
f.write( MOL.save_string_xyz() )
f.close()
--------------------------------------------------------------------------

  Memory set to   2.000 GiB by Python script.

*** tstart() called on cx1-3-2-3.cx1.hpc.ic.ac.uk
*** at Tue Jul  5 16:34:52 2016


         ---------------------------------------------------------
                                   SCF
            by Justin Turney, Rob Parrish, and Andy Simmonett
                              RHF Reference
                        1 Threads,   2000 MiB Core
         ---------------------------------------------------------

  ==> Geometry <==

    Molecular point group: c1
    Full point group: C1

    Geometry (in Angstrom), charge = 0, multiplicity = 1:

       Center              X                  Y                   Z               Mass       
    ------------   -----------------  -----------------  -----------------  -----------------
           H         -1.579394407161     0.582397282659    -2.540295809376     1.007825032070
           C         -1.130923407161     0.416327282659    -1.580764809376    12.000000000000
           C         -1.843265407161     0.672293282659    -0.362333809376    12.000000000000
           C          0.123864592839    -0.040936717341    -1.481601809376    12.000000000000
           H         -2.852994407161     1.040178282659    -0.408724809376     1.007825032070
           C         -1.261282407161     0.456925282659     0.826100190624    12.000000000000
           H          0.724157592839    -0.257113717341    -2.344920809376     1.007825032070
           N          0.736907592839    -0.267593717341    -0.281336809376    14.003074004780
           H         -1.762627407161     0.636845282659     1.757034190624     1.007825032070
           C          0.104134592839    -0.040702717341     0.933733190624    12.000000000000
           C          2.106872592839    -0.766745717341    -0.281183809376    12.000000000000
           O          0.662721592839    -0.247267717341     1.982312190624    15.994914619560
           H          2.284393592839    -1.370077717341    -1.163504809376     1.007825032070
           H          2.774274592839     0.076056282659    -0.283096809376     1.007825032070
           H          2.285577592839    -1.366899717341     0.603062190624     1.007825032070

  Running in c1 symmetry.

  Rotational constants: A =      0.11492  B =      0.07866  C =      0.04710 [cm^-1]
  Rotational constants: A =   3445.18311  B =   2358.03396  C =   1412.10933 [MHz]
  Nuclear repulsion =  357.513811366785660

  Charge       = 0
  Multiplicity = 1
  Electrons    = 58
  Nalpha       = 29
  Nbeta        = 29

  ==> Algorithm <==

  SCF Algorithm Type is DF.
  DIIS enabled.
  MOM disabled.
  Fractional occupation disabled.
  Guess Type is CORE.
  Energy threshold   = 1.00e-06
  Density threshold  = 1.00e-06
  Integral threshold = 0.00e+00

  ==> Primary Basis <==

  Basis Set: 6-31G*
    Number of shells: 62
    Number of basis function: 134
    Number of Cartesian functions: 134
    Spherical Harmonics?: false
    Max angular momentum: 2

  ==> Pre-Iterations <==

   -------------------------------------------------------
    Irrep   Nso     Nmo     Nalpha   Nbeta   Ndocc  Nsocc
   -------------------------------------------------------
     A        134     134       0       0       0       0
   -------------------------------------------------------
    Total     134     134      29      29      29       0
   -------------------------------------------------------

 OEINTS: Overlap, kinetic, potential, dipole, and quadrupole integrals
         stored in file 35.

  ==> Integral Setup <==

  ==> DFJK: Density-Fitted J/K Matrices <==

    J tasked:                  Yes
    K tasked:                  Yes
    wK tasked:                  No
    OpenMP threads:              1
    Integrals threads:           1
    Memory (MB):              1430
    Algorithm:                Core
    Integral Cache:           NONE
    Schwarz Cutoff:          1E-12
    Fitting Condition:       1E-12

   => Auxiliary Basis Set <=

  Basis Set: 
    Number of shells: 255
    Number of basis function: 823
    Number of Cartesian functions: 823
    Spherical Harmonics?: false
    Max angular momentum: 3

  Minimum eigenvalue in the overlap matrix is 7.0347732411E-04.
  Using Symmetric Orthogonalization.
  SCF Guess: Core (One-Electron) Hamiltonian.

  ==> Iterations <==

                           Total Energy        Delta E     RMS |[F,P]|

   @DF-RHF iter   1:  -284.72664227082436   -2.84727e+02   6.98592e-02 
   @DF-RHF iter   2:  -277.33967165709004    7.38697e+00   5.28094e-02 DIIS
   @DF-RHF iter   3:  -320.94508156965600   -4.36054e+01   5.11705e-02 DIIS
   @DF-RHF iter   4:  -356.03747535661790   -3.50924e+01   1.82480e-02 DIIS
   @DF-RHF iter   5:  -358.50362606635059   -2.46615e+00   1.38723e-02 DIIS
   @DF-RHF iter   6:  -360.52154240426097   -2.01792e+00   2.08718e-03 DIIS
   @DF-RHF iter   7:  -360.58280165763239   -6.12593e-02   8.05075e-04 DIIS
   @DF-RHF iter   8:  -360.59156071762908   -8.75906e-03   3.51837e-04 DIIS
   @DF-RHF iter   9:  -360.59440816106331   -2.84744e-03   1.97956e-04 DIIS
   @DF-RHF iter  10:  -360.59546335525039   -1.05519e-03   6.38711e-05 DIIS
   @DF-RHF iter  11:  -360.59557852766278   -1.15172e-04   1.96832e-05 DIIS
   @DF-RHF iter  12:  -360.59558967969605   -1.11520e-05   1.14465e-05 DIIS
   @DF-RHF iter  13:  -360.59559273307622   -3.05338e-06   3.85604e-06 DIIS
   @DF-RHF iter  14:  -360.59559317581335   -4.42737e-07   9.33291e-07 DIIS

  ==> Post-Iterations <==

    Orbital Energies (a.u.)
    -----------------------

    Doubly Occupied:                                                      

       1A    -20.508862     2A    -15.621861     3A    -11.342940  
       4A    -11.296802     5A    -11.266741     6A    -11.259933  
       7A    -11.233126     8A    -11.228646     9A     -1.383787  
      10A     -1.281502    11A     -1.114585    12A     -1.025545  
      13A     -0.970788    14A     -0.872320    15A     -0.835310  
      16A     -0.715063    17A     -0.697113    18A     -0.661568  
      19A     -0.650014    20A     -0.621634    21A     -0.606520  
      22A     -0.572371    23A     -0.552315    24A     -0.546638  
      25A     -0.526982    26A     -0.476684    27A     -0.413611  
      28A     -0.405663    29A     -0.304671  

    Virtual:                                                              

      30A      0.110828    31A      0.181255    32A      0.228111  
      33A      0.252534    34A      0.283090    35A      0.307690  
      36A      0.310278    37A      0.325919    38A      0.329863  
      39A      0.343598    40A      0.369426    41A      0.433136  
      42A      0.466483    43A      0.480692    44A      0.507354  
      45A      0.533722    46A      0.634199    47A      0.692081  
      48A      0.696810    49A      0.734195    50A      0.749374  
      51A      0.755524    52A      0.792109    53A      0.801043  
      54A      0.808302    55A      0.822035    56A      0.848300  
      57A      0.862405    58A      0.890653    59A      0.949547  
      60A      0.957048    61A      0.976990    62A      0.995186  
      63A      1.034701    64A      1.067935    65A      1.100747  
      66A      1.112527    67A      1.126385    68A      1.136235  
      69A      1.170865    70A      1.175407    71A      1.195406  
      72A      1.207855    73A      1.225487    74A      1.251504  
      75A      1.294838    76A      1.315224    77A      1.357847  
      78A      1.405173    79A      1.447648    80A      1.479984  
      81A      1.482907    82A      1.527276    83A      1.605538  
      84A      1.645414    85A      1.684129    86A      1.711924  
      87A      1.718733    88A      1.744518    89A      1.767218  
      90A      1.769739    91A      1.942410    92A      2.001353  
      93A      2.068132    94A      2.109164    95A      2.173433  
      96A      2.185229    97A      2.208501    98A      2.241623  
      99A      2.259475   100A      2.289873   101A      2.322109  
     102A      2.360063   103A      2.366516   104A      2.440660  
     105A      2.442373   106A      2.498033   107A      2.504171  
     108A      2.565751   109A      2.594355   110A      2.645341  
     111A      2.671221   112A      2.703417   113A      2.709689  
     114A      2.741327   115A      2.922065   116A      2.948445  
     117A      3.019921   118A      3.033731   119A      3.048764  
     120A      3.097631   121A      3.167237   122A      3.202542  
     123A      3.257780   124A      3.406103   125A      3.601887  
     126A      3.820472   127A      4.449511   128A      4.502389  
     129A      4.557555   130A      4.645320   131A      4.689665  
     132A      4.764188   133A      4.922289   134A      5.155723  

    Final Occupation by Irrep:
              A 
    DOCC [    29 ]

  Energy converged.

  @DF-RHF Final Energy:  -360.59559317581335

   => Energetics <=

    Nuclear Repulsion Energy =            357.5138113667856601
    One-Electron Energy =               -1198.2317766809960631
    Two-Electron Energy =                 480.1223721383966563
    DFT Exchange-Correlation Energy =       0.0000000000000000
    Empirical Dispersion Energy =           0.0000000000000000
    PCM Polarization Energy =               0.0000000000000000
    EFP Energy =                            0.0000000000000000
    Total Energy =                       -360.5955931758138036

    Alert: EFP and PCM quantities not currently incorporated into SCF psivars.

Properties will be evaluated at   0.000000,   0.000000,   0.000000 Bohr
  ==> Properties <==


Properties computed using the SCF density matrix

  Nuclear Dipole Moment: (a.u.)
     X:     1.7573      Y:    -0.6178      Z:    -4.0962

  Electronic Dipole Moment: (a.u.)
     X:    -1.9101      Y:     0.6585      Z:     2.3724

  Dipole Moment: (a.u.)
     X:    -0.1528      Y:     0.0407      Z:    -1.7238     Total:     1.7310

  Dipole Moment: (Debye)
     X:    -0.3885      Y:     0.1034      Z:    -4.3814     Total:     4.3998


  Saving occupied orbitals to File 180.

*** tstop() called on cx1-3-2-3.cx1.hpc.ic.ac.uk at Tue Jul  5 16:35:05 2016
Module time:
	user time   =      11.34 seconds =       0.19 minutes
	system time =       0.07 seconds =       0.00 minutes
	total time  =         13 seconds =       0.22 minutes
Total time:
	user time   =      11.34 seconds =       0.19 minutes
	system time =       0.07 seconds =       0.00 minutes
	total time  =         13 seconds =       0.22 minutes


Properties will be evaluated at   0.000000,   0.000000,   0.000000 Bohr

Properties computed using the  density matrix

  Nuclear Dipole Moment: (a.u.)
     X:     1.7573      Y:    -0.6178      Z:    -4.0962

  Electronic Dipole Moment: (a.u.)
     X:    -1.9101      Y:     0.6585      Z:     2.3724

  Dipole Moment: (a.u.)
     X:    -0.1528      Y:     0.0407      Z:    -1.7238     Total:     1.7310

  Dipole Moment: (Debye)
     X:    -0.3885      Y:     0.1034      Z:    -4.3814     Total:     4.3998

  Quadrupole Moment: (Debye Ang)
    XX:   -40.1772     YY:   -47.6226     ZZ:   -50.8596
    XY:    -3.3912     XZ:    -4.1821     YZ:     1.4746

  Traceless Quadrupole Moment: (Debye Ang)
    XX:     6.0426     YY:    -1.4028     ZZ:    -4.6398
    XY:    -3.3912     XZ:    -4.1821     YZ:     1.4746

  Mulliken Charges: (a.u.)
   Center  Symbol    Alpha    Beta     Spin     Total
       1     H     0.39300  0.39300  0.00000  0.21401
       2     C     3.16151  3.16151  0.00000 -0.32302
       3     C     3.05846  3.05846  0.00000 -0.11692
       4     C     2.92209  2.92209  0.00000  0.15581
       5     H     0.39096  0.39096  0.00000  0.21808
       6     C     3.16999  3.16999  0.00000 -0.33999
       7     H     0.38799  0.38799  0.00000  0.22402
       8     N     3.86500  3.86500  0.00000 -0.72999
       9     H     0.38649  0.38649  0.00000  0.22702
      10     C     2.59456  2.59456  0.00000  0.81088
      11     C     3.14793  3.14793  0.00000 -0.29586
      12     O     4.32093  4.32093  0.00000 -0.64186
      13     H     0.41342  0.41342  0.00000  0.17316
      14     H     0.40455  0.40455  0.00000  0.19090
      15     H     0.38311  0.38311  0.00000  0.23377

   Total alpha = 29.00000, Total beta = 29.00000, Total charge =  0.00000


*** PSI4 exiting successfully. Buy a developer a beer!
