    -----------------------------------------------------------------------
          Psi4: An Open-Source Ab Initio Electronic Structure Package
                              Psi4 (no tag) Driver

                          Git: Rev {detached?}  

    J. M. Turney, A. C. Simmonett, R. M. Parrish, E. G. Hohenstein,
    F. A. Evangelista, J. T. Fermann, B. J. Mintz, L. A. Burns, J. J. Wilke,
    M. L. Abrams, N. J. Russ, M. L. Leininger, C. L. Janssen, E. T. Seidl,
    W. D. Allen, H. F. Schaefer, R. A. King, E. F. Valeev, C. D. Sherrill,
    and T. D. Crawford, WIREs Comput. Mol. Sci. 2, 556-565 (2012)
    (doi: 10.1002/wcms.93)

                         Additional Contributions by
    A. E. DePrince, M. Saitow, U. Bozkaya, A. Yu. Sokolov
    -----------------------------------------------------------------------


    Psi4 started on: Tue Jul  5 16:35:29 2016

    Process ID:  18091
    PSI4DATADIR: /export131/home/mjharvey/miniconda3/share
    Memory level set to 256.000 MB

  ==> Input File <==

--------------------------------------------------------------------------
set {
	reference rhf
	basis 6-31G*
}


set_num_threads( 1 )
memory 2 gb

molecule MOL {
0 1

H	 -2.098997	 -0.674324	 -0.616650
O	 -2.035884	 -0.060112	 0.102722
C	 -0.955155	 0.788182	 -0.092531
C	 0.353668	 0.040312	 -0.004810
H	 -0.985057	 1.290372	 -1.054184
H	 -0.974469	 1.533190	 0.688632
F	 0.148501	 -1.219360	 0.363573
F	 0.955652	 0.021209	 -1.183135
F	 1.184051	 0.576879	 0.865885

	symmetry c1
}
set optking {
	frozen_dihedral = ("
		1 2 3 5
	")
}

ee = energy('scf')
oeprop('DIPOLE', 'QUADRUPOLE', 'MULLIKEN_CHARGES')
f=open( 'psi4out.xyz', 'w' )
f.write( "9  " )
f.write( str(ee) + "\n" )
f.write( MOL.save_string_xyz() )
f.close()
--------------------------------------------------------------------------

  Memory set to   2.000 GiB by Python script.

*** tstart() called on cx1-3-2-1.cx1.hpc.ic.ac.uk
*** at Tue Jul  5 16:35:30 2016


         ---------------------------------------------------------
                                   SCF
            by Justin Turney, Rob Parrish, and Andy Simmonett
                              RHF Reference
                        1 Threads,   2000 MiB Core
         ---------------------------------------------------------

  ==> Geometry <==

    Molecular point group: c1
    Full point group: C1

    Geometry (in Angstrom), charge = 0, multiplicity = 1:

       Center              X                  Y                   Z               Mass       
    ------------   -----------------  -----------------  -----------------  -----------------
           H         -2.095000607713    -0.667758108730    -0.620300632436     1.007825032070
           O         -2.031887607713    -0.053546108730     0.099071367564    15.994914619560
           C         -0.951158607713     0.794747891270    -0.096181632436    12.000000000000
           C          0.357664392287     0.046877891270    -0.008460632436    12.000000000000
           H         -0.981060607713     1.296937891270    -1.057834632436     1.007825032070
           H         -0.970472607713     1.539755891270     0.684981367564     1.007825032070
           F          0.152497392287    -1.212794108730     0.359922367564    18.998403224000
           F          0.959648392287     0.027774891270    -1.186785632436    18.998403224000
           F          1.188047392287     0.583444891270     0.862234367564    18.998403224000

  Running in c1 symmetry.

  Rotational constants: A =      0.18294  B =      0.09627  C =      0.09566 [cm^-1]
  Rotational constants: A =   5484.35907  B =   2886.16500  C =   2867.88867 [MHz]
  Nuclear repulsion =  277.528739485901497

  Charge       = 0
  Multiplicity = 1
  Electrons    = 50
  Nalpha       = 25
  Nbeta        = 25

  ==> Algorithm <==

  SCF Algorithm Type is DF.
  DIIS enabled.
  MOM disabled.
  Fractional occupation disabled.
  Guess Type is CORE.
  Energy threshold   = 1.00e-06
  Density threshold  = 1.00e-06
  Integral threshold = 0.00e+00

  ==> Primary Basis <==

  Basis Set: 6-31G*
    Number of shells: 42
    Number of basis function: 96
    Number of Cartesian functions: 96
    Spherical Harmonics?: false
    Max angular momentum: 2

  ==> Pre-Iterations <==

   -------------------------------------------------------
    Irrep   Nso     Nmo     Nalpha   Nbeta   Ndocc  Nsocc
   -------------------------------------------------------
     A         96      96       0       0       0       0
   -------------------------------------------------------
    Total      96      96      25      25      25       0
   -------------------------------------------------------

 OEINTS: Overlap, kinetic, potential, dipole, and quadrupole integrals
         stored in file 35.

  ==> Integral Setup <==

  ==> DFJK: Density-Fitted J/K Matrices <==

    J tasked:                  Yes
    K tasked:                  Yes
    wK tasked:                  No
    OpenMP threads:              1
    Integrals threads:           1
    Memory (MB):              1430
    Algorithm:                Core
    Integral Cache:           NONE
    Schwarz Cutoff:          1E-12
    Fitting Condition:       1E-12

   => Auxiliary Basis Set <=

  Basis Set: 
    Number of shells: 171
    Number of basis function: 561
    Number of Cartesian functions: 561
    Spherical Harmonics?: false
    Max angular momentum: 3

  Minimum eigenvalue in the overlap matrix is 1.6902377067E-03.
  Using Symmetric Orthogonalization.
  SCF Guess: Core (One-Electron) Hamiltonian.

  ==> Iterations <==

                           Total Energy        Delta E     RMS |[F,P]|

   @DF-RHF iter   1:  -400.24179714472234   -4.00242e+02   9.00240e-02 
   @DF-RHF iter   2:  -275.47364585897913    1.24768e+02   9.71677e-02 DIIS
   @DF-RHF iter   3:  -397.23080513891864   -1.21757e+02   6.48253e-02 DIIS
   @DF-RHF iter   4:  -449.00949718049469   -5.17787e+01   2.06793e-02 DIIS
   @DF-RHF iter   5:  -450.42677902124308   -1.41728e+00   7.89213e-03 DIIS
   @DF-RHF iter   6:  -450.56756968821378   -1.40791e-01   4.39488e-03 DIIS
   @DF-RHF iter   7:  -450.64295186687355   -7.53822e-02   1.38990e-03 DIIS
   @DF-RHF iter   8:  -450.65351652874790   -1.05647e-02   2.84141e-04 DIIS
   @DF-RHF iter   9:  -450.65410598181370   -5.89453e-04   9.75036e-05 DIIS
   @DF-RHF iter  10:  -450.65415428334495   -4.83015e-05   3.91433e-05 DIIS
   @DF-RHF iter  11:  -450.65416537106171   -1.10877e-05   7.78787e-06 DIIS
   @DF-RHF iter  12:  -450.65416590416055   -5.33099e-07   2.20157e-06 DIIS
   @DF-RHF iter  13:  -450.65416593245834   -2.82978e-08   5.60567e-07 DIIS

  ==> Post-Iterations <==

    Orbital Energies (a.u.)
    -----------------------

    Doubly Occupied:                                                      

       1A    -26.342534     2A    -26.342042     3A    -26.336089  
       4A    -20.587558     5A    -11.499091     6A    -11.306924  
       7A     -1.739286     8A     -1.639681     9A     -1.633556  
      10A     -1.400270    11A     -1.047548    12A     -0.921992  
      13A     -0.830844    14A     -0.826415    15A     -0.804332  
      16A     -0.726836    17A     -0.711832    18A     -0.698185  
      19A     -0.663380    20A     -0.658392    21A     -0.640803  
      22A     -0.626260    23A     -0.606320    24A     -0.526444  
      25A     -0.480733  

    Virtual:                                                              

      26A      0.208833    27A      0.270825    28A      0.275177  
      29A      0.324293    30A      0.425708    31A      0.439394  
      32A      0.478783    33A      0.509822    34A      0.696204  
      35A      0.742190    36A      0.757310    37A      0.775181  
      38A      0.813263    39A      0.905264    40A      0.933841  
      41A      1.051645    42A      1.127987    43A      1.137836  
      44A      1.189954    45A      1.199160    46A      1.316760  
      47A      1.340027    48A      1.342868    49A      1.367174  
      50A      1.425943    51A      1.470861    52A      1.598138  
      53A      1.618467    54A      1.634854    55A      1.640627  
      56A      1.669481    57A      1.677464    58A      1.683253  
      59A      1.760871    60A      1.902564    61A      1.925706  
      62A      1.968013    63A      2.019742    64A      2.040073  
      65A      2.115342    66A      2.134454    67A      2.145499  
      68A      2.176481    69A      2.238009    70A      2.284248  
      71A      2.299258    72A      2.343644    73A      2.375259  
      74A      2.394350    75A      2.408021    76A      2.418839  
      77A      2.464143    78A      2.614659    79A      2.643354  
      80A      2.686231    81A      2.848562    82A      2.871142  
      83A      2.899224    84A      3.114688    85A      3.127647  
      86A      3.177557    87A      3.223317    88A      3.418582  
      89A      3.430442    90A      3.436898    91A      4.131075  
      92A      4.580987    93A      4.863943    94A      4.922225  
      95A      4.968390    96A      5.869648  

    Final Occupation by Irrep:
              A 
    DOCC [    25 ]

  Energy converged.

  @DF-RHF Final Energy:  -450.65416593245834

   => Energetics <=

    Nuclear Repulsion Energy =            277.5287394859014967
    One-Electron Energy =               -1177.1710572807876360
    Two-Electron Energy =                 448.9881518624277419
    DFT Exchange-Correlation Energy =       0.0000000000000000
    Empirical Dispersion Energy =           0.0000000000000000
    PCM Polarization Energy =               0.0000000000000000
    EFP Energy =                            0.0000000000000000
    Total Energy =                       -450.6541659324583975

    Alert: EFP and PCM quantities not currently incorporated into SCF psivars.

Properties will be evaluated at   0.000000,   0.000000,   0.000000 Bohr
  ==> Properties <==


Properties computed using the SCF density matrix

  Nuclear Dipole Moment: (a.u.)
     X:    -5.9732      Y:     2.6006      Z:    -0.9639

  Electronic Dipole Moment: (a.u.)
     X:     5.6723      Y:    -2.2492      Z:     0.3705

  Dipole Moment: (a.u.)
     X:    -0.3009      Y:     0.3513      Z:    -0.5934     Total:     0.7524

  Dipole Moment: (Debye)
     X:    -0.7648      Y:     0.8930      Z:    -1.5084     Total:     1.9125


  Saving occupied orbitals to File 180.

*** tstop() called on cx1-3-2-1.cx1.hpc.ic.ac.uk at Tue Jul  5 16:35:34 2016
Module time:
	user time   =       4.31 seconds =       0.07 minutes
	system time =       0.04 seconds =       0.00 minutes
	total time  =          4 seconds =       0.07 minutes
Total time:
	user time   =       4.31 seconds =       0.07 minutes
	system time =       0.04 seconds =       0.00 minutes
	total time  =          4 seconds =       0.07 minutes


Properties will be evaluated at   0.000000,   0.000000,   0.000000 Bohr

Properties computed using the  density matrix

  Nuclear Dipole Moment: (a.u.)
     X:    -5.9732      Y:     2.6006      Z:    -0.9639

  Electronic Dipole Moment: (a.u.)
     X:     5.6723      Y:    -2.2492      Z:     0.3705

  Dipole Moment: (a.u.)
     X:    -0.3009      Y:     0.3513      Z:    -0.5934     Total:     0.7524

  Dipole Moment: (Debye)
     X:    -0.7648      Y:     0.8930      Z:    -1.5084     Total:     1.9125

  Quadrupole Moment: (Debye Ang)
    XX:   -35.7250     YY:   -30.5987     ZZ:   -32.1334
    XY:     0.4373     XZ:     3.3921     YZ:     1.1389

  Traceless Quadrupole Moment: (Debye Ang)
    XX:    -2.9060     YY:     2.2204     ZZ:     0.6856
    XY:     0.4373     XZ:     3.3921     YZ:     1.1389

  Mulliken Charges: (a.u.)
   Center  Symbol    Alpha    Beta     Spin     Total
       1     H     0.27451  0.27451  0.00000  0.45098
       2     O     4.35721  4.35721  0.00000 -0.71442
       3     C     3.07496  3.07496  0.00000 -0.14992
       4     C     2.45063  2.45063  0.00000  1.09875
       5     H     0.40508  0.40508  0.00000  0.18984
       6     H     0.39204  0.39204  0.00000  0.21591
       7     F     4.68171  4.68171  0.00000 -0.36342
       8     F     4.68408  4.68408  0.00000 -0.36817
       9     F     4.67977  4.67977  0.00000 -0.35955

   Total alpha = 25.00000, Total beta = 25.00000, Total charge = -0.00000


*** PSI4 exiting successfully. Buy a developer a beer!
