    -----------------------------------------------------------------------
          Psi4: An Open-Source Ab Initio Electronic Structure Package
                              Psi4 (no tag) Driver

                          Git: Rev {detached?}  

    J. M. Turney, A. C. Simmonett, R. M. Parrish, E. G. Hohenstein,
    F. A. Evangelista, J. T. Fermann, B. J. Mintz, L. A. Burns, J. J. Wilke,
    M. L. Abrams, N. J. Russ, M. L. Leininger, C. L. Janssen, E. T. Seidl,
    W. D. Allen, H. F. Schaefer, R. A. King, E. F. Valeev, C. D. Sherrill,
    and T. D. Crawford, WIREs Comput. Mol. Sci. 2, 556-565 (2012)
    (doi: 10.1002/wcms.93)

                         Additional Contributions by
    A. E. DePrince, M. Saitow, U. Bozkaya, A. Yu. Sokolov
    -----------------------------------------------------------------------


    Psi4 started on: Tue Jul  5 16:43:58 2016

    Process ID:  18724
    PSI4DATADIR: /export131/home/mjharvey/miniconda3/share
    Memory level set to 256.000 MB

  ==> Input File <==

--------------------------------------------------------------------------
set {
	reference rhf
	basis 6-31G*
}


set_num_threads( 1 )
memory 2 gb

molecule MOL {
0 1

O	 -1.690416	 -0.748373	 -0.401552
C	 -1.083277	 0.139568	 0.115197
C	 0.323299	 -0.082943	 0.642902
C	 -1.685909	 1.515353	 0.293742
C	 1.355627	 -0.005344	 -0.493127
H	 0.396251	 -1.044647	 1.143147
H	 0.528637	 0.693580	 1.371677
C	 1.155333	 1.223865	 -1.377534
H	 2.360126	 0.010252	 -0.075980
H	 1.280057	 -0.907677	 -1.090809
H	 1.891536	 1.252673	 -2.174319
H	 1.250670	 2.141594	 -0.804378
H	 0.170717	 1.219102	 -1.835306
H	 -1.594763	 1.845036	 1.324601
H	 -2.726911	 1.503837	 0.002335
H	 -1.147362	 2.232113	 -0.320608

	symmetry c1
}
set optking {
	frozen_dihedral = ("
		9 5 3 2
	")
}

ee = energy('scf')
oeprop('DIPOLE', 'QUADRUPOLE', 'MULLIKEN_CHARGES')
f=open( 'psi4out.xyz', 'w' )
f.write( "16  " )
f.write( str(ee) + "\n" )
f.write( MOL.save_string_xyz() )
f.close()
--------------------------------------------------------------------------

  Memory set to   2.000 GiB by Python script.

*** tstart() called on cx1-3-15-3.cx1.hpc.ic.ac.uk
*** at Tue Jul  5 16:43:58 2016


         ---------------------------------------------------------
                                   SCF
            by Justin Turney, Rob Parrish, and Andy Simmonett
                              RHF Reference
                        1 Threads,   2000 MiB Core
         ---------------------------------------------------------

  ==> Geometry <==

    Molecular point group: c1
    Full point group: C1

    Geometry (in Angstrom), charge = 0, multiplicity = 1:

       Center              X                  Y                   Z               Mass       
    ------------   -----------------  -----------------  -----------------  -----------------
           O         -1.413565771076    -1.103090878069    -0.183975282214    15.994914619560
           C         -0.806426771076    -0.215149878069     0.332773717786    12.000000000000
           C          0.600149228924    -0.437660878069     0.860478717786    12.000000000000
           C         -1.409058771076     1.160635121931     0.511318717786    12.000000000000
           C          1.632477228924    -0.360061878069    -0.275550282214    12.000000000000
           H          0.673101228924    -1.399364878069     1.360723717786     1.007825032070
           H          0.805487228924     0.338862121931     1.589253717786     1.007825032070
           C          1.432183228924     0.869147121931    -1.159957282214    12.000000000000
           H          2.636976228924    -0.344465878069     0.141596717786     1.007825032070
           H          1.556907228924    -1.262394878069    -0.873232282214     1.007825032070
           H          2.168386228924     0.897955121931    -1.956742282214     1.007825032070
           H          1.527520228924     1.786876121931    -0.586801282214     1.007825032070
           H          0.447567228924     0.864384121931    -1.617729282214     1.007825032070
           H         -1.317912771076     1.490318121931     1.542177717786     1.007825032070
           H         -2.450060771076     1.149119121931     0.219911717786     1.007825032070
           H         -0.870511771076     1.877395121931    -0.103031282214     1.007825032070

  Running in c1 symmetry.

  Rotational constants: A =      0.16964  B =      0.08594  C =      0.07430 [cm^-1]
  Rotational constants: A =   5085.80755  B =   2576.54189  C =   2227.57700 [MHz]
  Nuclear repulsion =  244.640815486639070

  Charge       = 0
  Multiplicity = 1
  Electrons    = 48
  Nalpha       = 24
  Nbeta        = 24

  ==> Algorithm <==

  SCF Algorithm Type is DF.
  DIIS enabled.
  MOM disabled.
  Fractional occupation disabled.
  Guess Type is CORE.
  Energy threshold   = 1.00e-06
  Density threshold  = 1.00e-06
  Integral threshold = 0.00e+00

  ==> Primary Basis <==

  Basis Set: 6-31G*
    Number of shells: 56
    Number of basis function: 110
    Number of Cartesian functions: 110
    Spherical Harmonics?: false
    Max angular momentum: 2

  ==> Pre-Iterations <==

   -------------------------------------------------------
    Irrep   Nso     Nmo     Nalpha   Nbeta   Ndocc  Nsocc
   -------------------------------------------------------
     A        110     110       0       0       0       0
   -------------------------------------------------------
    Total     110     110      24      24      24       0
   -------------------------------------------------------

 OEINTS: Overlap, kinetic, potential, dipole, and quadrupole integrals
         stored in file 35.

  ==> Integral Setup <==

  ==> DFJK: Density-Fitted J/K Matrices <==

    J tasked:                  Yes
    K tasked:                  Yes
    wK tasked:                  No
    OpenMP threads:              1
    Integrals threads:           1
    Memory (MB):              1430
    Algorithm:                Core
    Integral Cache:           NONE
    Schwarz Cutoff:          1E-12
    Fitting Condition:       1E-12

   => Auxiliary Basis Set <=

  Basis Set: 
    Number of shells: 234
    Number of basis function: 736
    Number of Cartesian functions: 736
    Spherical Harmonics?: false
    Max angular momentum: 3

  Minimum eigenvalue in the overlap matrix is 3.5738107052E-03.
  Using Symmetric Orthogonalization.
  SCF Guess: Core (One-Electron) Hamiltonian.

  ==> Iterations <==

                           Total Energy        Delta E     RMS |[F,P]|

   @DF-RHF iter   1:  -209.02100492306081   -2.09021e+02   7.46182e-02 
   @DF-RHF iter   2:  -189.66776005937166    1.93532e+01   6.05600e-02 DIIS
   @DF-RHF iter   3:  -234.44816773818675   -4.47804e+01   5.08598e-02 DIIS
   @DF-RHF iter   4:  -268.98397954361792   -3.45358e+01   1.22810e-02 DIIS
   @DF-RHF iter   5:  -269.84739827382964   -8.63419e-01   5.78489e-03 DIIS
   @DF-RHF iter   6:  -269.99670582182921   -1.49308e-01   1.99084e-03 DIIS
   @DF-RHF iter   7:  -270.01828924712538   -2.15834e-02   9.26244e-04 DIIS
   @DF-RHF iter   8:  -270.02428809976266   -5.99885e-03   2.59455e-04 DIIS
   @DF-RHF iter   9:  -270.02492638362082   -6.38284e-04   6.24973e-05 DIIS
   @DF-RHF iter  10:  -270.02497626928891   -4.98857e-05   2.23162e-05 DIIS
   @DF-RHF iter  11:  -270.02498492066741   -8.65138e-06   9.21174e-06 DIIS
   @DF-RHF iter  12:  -270.02498724271243   -2.32205e-06   4.02403e-06 DIIS
   @DF-RHF iter  13:  -270.02498776461846   -5.21906e-07   1.77296e-06 DIIS
   @DF-RHF iter  14:  -270.02498788328774   -1.18669e-07   6.50113e-07 DIIS

  ==> Post-Iterations <==

    Orbital Energies (a.u.)
    -----------------------

    Doubly Occupied:                                                      

       1A    -20.547780     2A    -11.324391     3A    -11.232706  
       4A    -11.229514     5A    -11.227249     6A    -11.221075  
       7A     -1.393585     8A     -1.085750     9A     -1.009093  
      10A     -0.953059    11A     -0.833507    12A     -0.728834  
      13A     -0.659929    14A     -0.643885    15A     -0.624206  
      16A     -0.608749    17A     -0.575831    18A     -0.553445  
      19A     -0.549233    20A     -0.513710    21A     -0.500655  
      22A     -0.484655    23A     -0.470209    24A     -0.397912  

    Virtual:                                                              

      25A      0.163791    26A      0.225804    27A      0.261349  
      28A      0.277798    29A      0.284634    30A      0.292542  
      31A      0.318208    32A      0.329720    33A      0.333341  
      34A      0.348699    35A      0.358418    36A      0.382588  
      37A      0.409277    38A      0.445191    39A      0.489840  
      40A      0.503395    41A      0.694308    42A      0.719339  
      43A      0.743470    44A      0.763541    45A      0.784146  
      46A      0.819008    47A      0.849299    48A      0.884758  
      49A      0.905328    50A      0.931545    51A      0.951067  
      52A      0.977737    53A      1.010375    54A      1.053566  
      55A      1.095932    56A      1.112737    57A      1.130933  
      58A      1.150855    59A      1.156265    60A      1.186004  
      61A      1.193429    62A      1.198786    63A      1.206713  
      64A      1.237557    65A      1.248786    66A      1.271888  
      67A      1.325187    68A      1.344823    69A      1.380120  
      70A      1.454255    71A      1.477230    72A      1.651553  
      73A      1.702848    74A      1.757409    75A      1.796352  
      76A      1.843162    77A      1.903233    78A      1.997253  
      79A      2.069172    80A      2.095569    81A      2.123134  
      82A      2.146337    83A      2.181515    84A      2.256094  
      85A      2.265519    86A      2.305889    87A      2.330555  
      88A      2.387112    89A      2.427231    90A      2.489657  
      91A      2.544606    92A      2.616176    93A      2.649418  
      94A      2.659834    95A      2.689997    96A      2.750373  
      97A      2.775663    98A      2.838490    99A      2.896909  
     100A      3.021822   101A      3.052282   102A      3.108269  
     103A      3.374637   104A      3.377744   105A      4.468819  
     106A      4.541709   107A      4.629622   108A      4.751209  
     109A      4.875035   110A      5.002388  

    Final Occupation by Irrep:
              A 
    DOCC [    24 ]

  Energy converged.

  @DF-RHF Final Energy:  -270.02498788328774

   => Energetics <=

    Nuclear Repulsion Energy =            244.6408154866390703
    One-Electron Energy =                -850.5937474426485778
    Two-Electron Energy =                 335.9279440727216866
    DFT Exchange-Correlation Energy =       0.0000000000000000
    Empirical Dispersion Energy =           0.0000000000000000
    PCM Polarization Energy =               0.0000000000000000
    EFP Energy =                            0.0000000000000000
    Total Energy =                       -270.0249878832877926

    Alert: EFP and PCM quantities not currently incorporated into SCF psivars.

Properties will be evaluated at   0.000000,   0.000000,   0.000000 Bohr
  ==> Properties <==


Properties computed using the SCF density matrix

  Nuclear Dipole Moment: (a.u.)
     X:     4.8469      Y:     5.0558      Z:    -0.2670

  Electronic Dipole Moment: (a.u.)
     X:    -4.1265      Y:    -4.1941      Z:     0.7031

  Dipole Moment: (a.u.)
     X:     0.7204      Y:     0.8617      Z:     0.4361     Total:     1.2049

  Dipole Moment: (Debye)
     X:     1.8311      Y:     2.1902      Z:     1.1085     Total:     3.0625


  Saving occupied orbitals to File 180.

*** tstop() called on cx1-3-15-3.cx1.hpc.ic.ac.uk at Tue Jul  5 16:44:05 2016
Module time:
	user time   =       6.72 seconds =       0.11 minutes
	system time =       0.04 seconds =       0.00 minutes
	total time  =          7 seconds =       0.12 minutes
Total time:
	user time   =       6.72 seconds =       0.11 minutes
	system time =       0.04 seconds =       0.00 minutes
	total time  =          7 seconds =       0.12 minutes


Properties will be evaluated at   0.000000,   0.000000,   0.000000 Bohr

Properties computed using the  density matrix

  Nuclear Dipole Moment: (a.u.)
     X:     4.8469      Y:     5.0558      Z:    -0.2670

  Electronic Dipole Moment: (a.u.)
     X:    -4.1265      Y:    -4.1941      Z:     0.7031

  Dipole Moment: (a.u.)
     X:     0.7204      Y:     0.8617      Z:     0.4361     Total:     1.2049

  Dipole Moment: (Debye)
     X:     1.8311      Y:     2.1902      Z:     1.1085     Total:     3.0625

  Quadrupole Moment: (Debye Ang)
    XX:   -40.3282     YY:   -40.3988     ZZ:   -37.4248
    XY:    -4.0956     XZ:    -1.4694     YZ:    -0.6879

  Traceless Quadrupole Moment: (Debye Ang)
    XX:    -0.9443     YY:    -1.0148     ZZ:     1.9591
    XY:    -4.0956     XZ:    -1.4694     YZ:    -0.6879

  Mulliken Charges: (a.u.)
   Center  Symbol    Alpha    Beta     Spin     Total
       1     O     4.26181  4.26181  0.00000 -0.52362
       2     C     2.74363  2.74363  0.00000  0.51274
       3     C     3.19777  3.19777  0.00000 -0.39553
       4     C     3.28994  3.28994  0.00000 -0.57988
       5     C     3.15474  3.15474  0.00000 -0.30948
       6     H     0.39883  0.39883  0.00000  0.20234
       7     H     0.41896  0.41896  0.00000  0.16208
       8     C     3.25339  3.25339  0.00000 -0.50678
       9     H     0.41519  0.41519  0.00000  0.16961
      10     H     0.40743  0.40743  0.00000  0.18514
      11     H     0.41243  0.41243  0.00000  0.17513
      12     H     0.42111  0.42111  0.00000  0.15777
      13     H     0.41410  0.41410  0.00000  0.17181
      14     H     0.40959  0.40959  0.00000  0.18082
      15     H     0.39702  0.39702  0.00000  0.20596
      16     H     0.40405  0.40405  0.00000  0.19190

   Total alpha = 24.00000, Total beta = 24.00000, Total charge =  0.00000


*** PSI4 exiting successfully. Buy a developer a beer!
