    -----------------------------------------------------------------------
          Psi4: An Open-Source Ab Initio Electronic Structure Package
                              Psi4 (no tag) Driver

                          Git: Rev {detached?}  

    J. M. Turney, A. C. Simmonett, R. M. Parrish, E. G. Hohenstein,
    F. A. Evangelista, J. T. Fermann, B. J. Mintz, L. A. Burns, J. J. Wilke,
    M. L. Abrams, N. J. Russ, M. L. Leininger, C. L. Janssen, E. T. Seidl,
    W. D. Allen, H. F. Schaefer, R. A. King, E. F. Valeev, C. D. Sherrill,
    and T. D. Crawford, WIREs Comput. Mol. Sci. 2, 556-565 (2012)
    (doi: 10.1002/wcms.93)

                         Additional Contributions by
    A. E. DePrince, M. Saitow, U. Bozkaya, A. Yu. Sokolov
    -----------------------------------------------------------------------


    Psi4 started on: Tue Jul  5 17:00:21 2016

    Process ID:  16117
    PSI4DATADIR: /export131/home/mjharvey/miniconda3/share
    Memory level set to 256.000 MB

  ==> Input File <==

--------------------------------------------------------------------------
set {
	reference rhf
	basis 6-31G*
}


set_num_threads( 1 )
memory 2 gb

molecule MOL {
0 1

H	 -2.646374	 -0.642757	 1.268656
C	 -2.083525	 -0.384536	 0.393091
O	 -0.807605	 -0.127164	 0.768327
F	 -2.118945	 -1.383102	 -0.486752
F	 -2.621877	 0.670592	 -0.209486
C	 0.084052	 0.273579	 -0.209957
C	 -0.303599	 1.690886	 -0.611364
Cl	 0.016543	 -0.811386	 -1.608351
H	 1.100328	 0.287999	 0.143243
F	 -1.456880	 1.689739	 -1.245462
F	 0.613369	 2.165691	 -1.430614
F	 -0.391090	 2.491531	 0.422699

	symmetry c1
}
set optking {
	frozen_dihedral = ("
		10 7 6 9,
		6 3 2 4
	")
}

ee = energy('scf')
oeprop('DIPOLE', 'QUADRUPOLE', 'MULLIKEN_CHARGES')
f=open( 'psi4out.xyz', 'w' )
f.write( "12  " )
f.write( str(ee) + "\n" )
f.write( MOL.save_string_xyz() )
f.close()
--------------------------------------------------------------------------

  Memory set to   2.000 GiB by Python script.

*** tstart() called on cx1-3-4-4.cx1.hpc.ic.ac.uk
*** at Tue Jul  5 17:00:21 2016


         ---------------------------------------------------------
                                   SCF
            by Justin Turney, Rob Parrish, and Andy Simmonett
                              RHF Reference
                        1 Threads,   2000 MiB Core
         ---------------------------------------------------------

  ==> Geometry <==

    Molecular point group: c1
    Full point group: C1

    Geometry (in Angstrom), charge = 0, multiplicity = 1:

       Center              X                  Y                   Z               Mass       
    ------------   -----------------  -----------------  -----------------  -----------------
           H         -1.803538871736    -1.160445911924     1.832366628442     1.007825032070
           C         -1.240689871736    -0.902224911924     0.956801628442    12.000000000000
           O          0.035230128264    -0.644852911924     1.332037628442    15.994914619560
           F         -1.276109871736    -1.900790911924     0.076958628442    18.998403224000
           F         -1.779041871736     0.152903088076     0.354224628442    18.998403224000
           C          0.926887128264    -0.244109911924     0.353753628442    12.000000000000
           C          0.539236128264     1.173197088076    -0.047653371558    12.000000000000
          CL          0.859378128264    -1.329074911924    -1.044640371558    34.968852682000
           H          1.943163128264    -0.229689911924     0.706953628442     1.007825032070
           F         -0.614044871736     1.172050088076    -0.681751371558    18.998403224000
           F          1.456204128264     1.648002088076    -0.866903371558    18.998403224000
           F          0.451745128264     1.973842088076     0.986409628442    18.998403224000

  Running in c1 symmetry.

  Rotational constants: A =      0.05623  B =      0.03882  C =      0.02955 [cm^-1]
  Rotational constants: A =   1685.87936  B =   1163.91221  C =    885.79088 [MHz]
  Nuclear repulsion =  786.164763407628925

  Charge       = 0
  Multiplicity = 1
  Electrons    = 90
  Nalpha       = 45
  Nbeta        = 45

  ==> Algorithm <==

  SCF Algorithm Type is DF.
  DIIS enabled.
  MOM disabled.
  Fractional occupation disabled.
  Guess Type is CORE.
  Energy threshold   = 1.00e-06
  Density threshold  = 1.00e-06
  Integral threshold = 0.00e+00

  ==> Primary Basis <==

  Basis Set: 6-31G*
    Number of shells: 66
    Number of basis function: 158
    Number of Cartesian functions: 158
    Spherical Harmonics?: false
    Max angular momentum: 2

  ==> Pre-Iterations <==

   -------------------------------------------------------
    Irrep   Nso     Nmo     Nalpha   Nbeta   Ndocc  Nsocc
   -------------------------------------------------------
     A        158     158       0       0       0       0
   -------------------------------------------------------
    Total     158     158      45      45      45       0
   -------------------------------------------------------

 OEINTS: Overlap, kinetic, potential, dipole, and quadrupole integrals
         stored in file 35.

  ==> Integral Setup <==

  ==> DFJK: Density-Fitted J/K Matrices <==

    J tasked:                  Yes
    K tasked:                  Yes
    wK tasked:                  No
    OpenMP threads:              1
    Integrals threads:           1
    Memory (MB):              1430
    Algorithm:                Core
    Integral Cache:           NONE
    Schwarz Cutoff:          1E-12
    Fitting Condition:       1E-12

   => Auxiliary Basis Set <=

  Basis Set: 
    Number of shells: 270
    Number of basis function: 909
    Number of Cartesian functions: 909
    Spherical Harmonics?: false
    Max angular momentum: 3

  Minimum eigenvalue in the overlap matrix is 1.4164489793E-03.
  Using Symmetric Orthogonalization.
  SCF Guess: Core (One-Electron) Hamiltonian.

  ==> Iterations <==

                           Total Energy        Delta E     RMS |[F,P]|

   @DF-RHF iter   1: -1068.46262469273233   -1.06846e+03   6.74075e-02 
   @DF-RHF iter   2: -1017.60504014506273    5.08576e+01   7.11580e-02 DIIS
   @DF-RHF iter   3: -1118.96350491765406   -1.01358e+02   3.47511e-02 DIIS
   @DF-RHF iter   4: -1097.43980006571292    2.15237e+01   5.15027e-02 DIIS
   @DF-RHF iter   5: -1145.08663732395848   -4.76468e+01   1.17637e-02 DIIS
   @DF-RHF iter   6: -1146.14690413458902   -1.06027e+00   3.43447e-03 DIIS
   @DF-RHF iter   7: -1146.22710092158059   -8.01968e-02   1.22494e-03 DIIS
   @DF-RHF iter   8: -1146.24098561168694   -1.38847e-02   4.06242e-04 DIIS
   @DF-RHF iter   9: -1146.24260891047516   -1.62330e-03   1.32333e-04 DIIS
   @DF-RHF iter  10: -1146.24283135986116   -2.22449e-04   2.77951e-05 DIIS
   @DF-RHF iter  11: -1146.24284334323966   -1.19834e-05   1.05761e-05 DIIS
   @DF-RHF iter  12: -1146.24284508514938   -1.74191e-06   2.67957e-06 DIIS
   @DF-RHF iter  13: -1146.24284526720021   -1.82051e-07   7.45604e-07 DIIS

  ==> Post-Iterations <==

    Orbital Energies (a.u.)
    -----------------------

    Doubly Occupied:                                                      

       1A   -104.835176     2A    -26.360888     3A    -26.351693  
       4A    -26.332587     5A    -26.329554     6A    -26.323254  
       7A    -20.646817     8A    -11.519365     9A    -11.480597  
      10A    -11.398829    11A    -10.570955    12A     -8.040227  
      13A     -8.036657    14A     -8.036554    15A     -1.758666  
      16A     -1.709590    17A     -1.656238    18A     -1.651993  
      19A     -1.619242    20A     -1.484941    21A     -1.175502  
      22A     -1.046138    23A     -0.994592    24A     -0.906461  
      25A     -0.861269    26A     -0.851033    27A     -0.840653  
      28A     -0.831834    29A     -0.801492    30A     -0.757664  
      31A     -0.728595    32A     -0.722709    33A     -0.701912  
      34A     -0.697664    35A     -0.679641    36A     -0.663604  
      37A     -0.657941    38A     -0.645773    39A     -0.638025  
      40A     -0.627944    41A     -0.568494    42A     -0.559423  
      43A     -0.523035    44A     -0.466933    45A     -0.456533  

    Virtual:                                                              

      46A      0.176037    47A      0.236127    48A      0.265077  
      49A      0.282813    50A      0.350248    51A      0.386403  
      52A      0.407598    53A      0.421371    54A      0.443232  
      55A      0.470072    56A      0.499856    57A      0.565362  
      58A      0.629497    59A      0.632268    60A      0.669982  
      61A      0.688900    62A      0.708003    63A      0.721232  
      64A      0.748517    65A      0.757905    66A      0.761205  
      67A      0.771910    68A      0.851321    69A      0.934579  
      70A      0.992116    71A      1.025195    72A      1.066888  
      73A      1.072517    74A      1.119019    75A      1.147967  
      76A      1.179208    77A      1.196348    78A      1.256849  
      79A      1.281431    80A      1.311869    81A      1.336469  
      82A      1.365303    83A      1.385053    84A      1.404368  
      85A      1.426366    86A      1.464591    87A      1.488604  
      88A      1.541685    89A      1.546667    90A      1.587215  
      91A      1.608659    92A      1.613547    93A      1.616430  
      94A      1.649485    95A      1.651540    96A      1.668907  
      97A      1.687129    98A      1.720836    99A      1.774481  
     100A      1.800731   101A      1.835587   102A      1.869259  
     103A      1.929794   104A      1.947919   105A      1.969876  
     106A      2.000618   107A      2.038212   108A      2.068814  
     109A      2.080502   110A      2.083344   111A      2.086632  
     112A      2.124455   113A      2.140072   114A      2.212834  
     115A      2.239404   116A      2.269400   117A      2.281822  
     118A      2.329477   119A      2.335780   120A      2.367312  
     121A      2.377690   122A      2.385624   123A      2.416270  
     124A      2.449597   125A      2.459257   126A      2.486455  
     127A      2.507231   128A      2.551651   129A      2.587923  
     130A      2.636245   131A      2.674662   132A      2.796554  
     133A      2.820484   134A      2.862361   135A      2.882488  
     136A      3.003919   137A      3.042550   138A      3.124830  
     139A      3.187427   140A      3.189614   141A      3.225089  
     142A      3.315643   143A      3.338988   144A      3.420721  
     145A      3.424365   146A      3.450508   147A      3.499035  
     148A      3.526370   149A      4.390415   150A      4.585857  
     151A      4.649611   152A      4.709067   153A      4.846236  
     154A      4.932277   155A      5.138205   156A      5.543320  
     157A      5.699548   158A      6.491678  

    Final Occupation by Irrep:
              A 
    DOCC [    45 ]

  Energy converged.

  @DF-RHF Final Energy: -1146.24284526720021

   => Energetics <=

    Nuclear Repulsion Energy =            786.1647634076289251
    One-Electron Energy =               -3155.7178068959956363
    Two-Electron Energy =                1223.3101982211669565
    DFT Exchange-Correlation Energy =       0.0000000000000000
    Empirical Dispersion Energy =           0.0000000000000000
    PCM Polarization Energy =               0.0000000000000000
    EFP Energy =                            0.0000000000000000
    Total Energy =                      -1146.2428452671997547

    Alert: EFP and PCM quantities not currently incorporated into SCF psivars.

Properties will be evaluated at   0.000000,   0.000000,   0.000000 Bohr
  ==> Properties <==


Properties computed using the SCF density matrix

  Nuclear Dipole Moment: (a.u.)
     X:     1.0058      Y:    -2.9631      Z:     3.4669

  Electronic Dipole Moment: (a.u.)
     X:    -0.8222      Y:     2.7113      Z:    -2.6272

  Dipole Moment: (a.u.)
     X:     0.1837      Y:    -0.2518      Z:     0.8397     Total:     0.8957

  Dipole Moment: (Debye)
     X:     0.4668      Y:    -0.6400      Z:     2.1342     Total:     2.2765


  Saving occupied orbitals to File 180.

*** tstop() called on cx1-3-4-4.cx1.hpc.ic.ac.uk at Tue Jul  5 17:00:40 2016
Module time:
	user time   =      18.51 seconds =       0.31 minutes
	system time =       0.20 seconds =       0.00 minutes
	total time  =         19 seconds =       0.32 minutes
Total time:
	user time   =      18.51 seconds =       0.31 minutes
	system time =       0.20 seconds =       0.00 minutes
	total time  =         19 seconds =       0.32 minutes


Properties will be evaluated at   0.000000,   0.000000,   0.000000 Bohr

Properties computed using the  density matrix

  Nuclear Dipole Moment: (a.u.)
     X:     1.0058      Y:    -2.9631      Z:     3.4669

  Electronic Dipole Moment: (a.u.)
     X:    -0.8222      Y:     2.7113      Z:    -2.6272

  Dipole Moment: (a.u.)
     X:     0.1837      Y:    -0.2518      Z:     0.8397     Total:     0.8957

  Dipole Moment: (Debye)
     X:     0.4668      Y:    -0.6400      Z:     2.1342     Total:     2.2765

  Quadrupole Moment: (Debye Ang)
    XX:   -56.4589     YY:   -63.0117     ZZ:   -59.0501
    XY:     1.0503     XZ:    -1.2494     YZ:    -1.6460

  Traceless Quadrupole Moment: (Debye Ang)
    XX:     3.0480     YY:    -3.5048     ZZ:     0.4568
    XY:     1.0503     XZ:    -1.2494     YZ:    -1.6460

  Mulliken Charges: (a.u.)
   Center  Symbol    Alpha    Beta     Spin     Total
       1     H     0.40353  0.40353  0.00000  0.19294
       2     C     2.56155  2.56155  0.00000  0.87689
       3     O     4.30336  4.30336  0.00000 -0.60673
       4     F     4.68184  4.68184  0.00000 -0.36368
       5     F     4.67981  4.67981  0.00000 -0.35962
       6     C     3.05411  3.05411  0.00000 -0.10823
       7     C     2.43853  2.43853  0.00000  1.12294
       8    CL     8.49807  8.49807  0.00000  0.00385
       9     H     0.36165  0.36165  0.00000  0.27670
      10     F     4.66721  4.66721  0.00000 -0.33443
      11     F     4.67832  4.67832  0.00000 -0.35663
      12     F     4.67200  4.67200  0.00000 -0.34401

   Total alpha = 45.00000, Total beta = 45.00000, Total charge = -0.00000


*** PSI4 exiting successfully. Buy a developer a beer!
