    -----------------------------------------------------------------------
          Psi4: An Open-Source Ab Initio Electronic Structure Package
                              Psi4 (no tag) Driver

                          Git: Rev {detached?}  

    J. M. Turney, A. C. Simmonett, R. M. Parrish, E. G. Hohenstein,
    F. A. Evangelista, J. T. Fermann, B. J. Mintz, L. A. Burns, J. J. Wilke,
    M. L. Abrams, N. J. Russ, M. L. Leininger, C. L. Janssen, E. T. Seidl,
    W. D. Allen, H. F. Schaefer, R. A. King, E. F. Valeev, C. D. Sherrill,
    and T. D. Crawford, WIREs Comput. Mol. Sci. 2, 556-565 (2012)
    (doi: 10.1002/wcms.93)

                         Additional Contributions by
    A. E. DePrince, M. Saitow, U. Bozkaya, A. Yu. Sokolov
    -----------------------------------------------------------------------


    Psi4 started on: Tue Jul  5 17:13:35 2016

    Process ID:  10038
    PSI4DATADIR: /export131/home/mjharvey/miniconda3/share
    Memory level set to 256.000 MB

  ==> Input File <==

--------------------------------------------------------------------------
set {
	reference rhf
	basis 6-31G*
}


set_num_threads( 1 )
memory 2 gb

molecule MOL {
0 1

O	 -1.326681	 1.665265	 1.716891
C	 -0.833093	 0.610524	 1.479901
C	 -0.352503	 -0.369606	 2.515626
O	 -0.632575	 0.154573	 0.251549
H	 0.705488	 -0.560044	 2.376576
H	 -0.529806	 0.030082	 3.502869
H	 -0.874011	 -1.312366	 2.397353
C	 0.160891	 -1.019931	 0.106212
C	 1.589627	 -0.672828	 0.480843
H	 0.089836	 -1.367806	 -0.916050
H	 -0.238459	 -1.792301	 0.749618
C	 1.722001	 0.048570	 1.823400
H	 1.992087	 -0.045559	 -0.311932
H	 2.181606	 -1.584278	 0.489726
C	 0.938030	 -0.641001	 2.939143
H	 2.773202	 0.101679	 2.099546
H	 1.378146	 1.072119	 1.716299
H	 1.047027	 -0.110418	 3.879693
H	 1.283598	 -1.659565	 3.092076
H	 -0.121838	 -0.683666	 2.704755

	symmetry c1
}
set optking {
	frozen_dihedral = ("
		16 12 9 8,
		2 4 8 10,
		12 9 8 10
	")
}

ee = energy('scf')
oeprop('DIPOLE', 'QUADRUPOLE', 'MULLIKEN_CHARGES')
f=open( 'psi4out.xyz', 'w' )
f.write( "20  " )
f.write( str(ee) + "\n" )
f.write( MOL.save_string_xyz() )
f.close()
--------------------------------------------------------------------------

  Memory set to   2.000 GiB by Python script.

*** tstart() called on cx1-1-1-1.cx1.hpc.ic.ac.uk
*** at Tue Jul  5 17:13:36 2016


         ---------------------------------------------------------
                                   SCF
            by Justin Turney, Rob Parrish, and Andy Simmonett
                              RHF Reference
                        1 Threads,   2000 MiB Core
         ---------------------------------------------------------

  ==> Geometry <==

    Molecular point group: c1
    Full point group: C1

    Geometry (in Angstrom), charge = 0, multiplicity = 1:

       Center              X                  Y                   Z               Mass       
    ------------   -----------------  -----------------  -----------------  -----------------
           O         -1.474195037781     1.694529619562     0.290528385635    15.994914619560
           C         -0.980607037781     0.639788619562     0.053538385635    12.000000000000
           C         -0.500017037781    -0.340341380438     1.089263385635    12.000000000000
           O         -0.780089037781     0.183837619562    -1.174813614365    15.994914619560
           H          0.557973962219    -0.530779380438     0.950213385635     1.007825032070
           H         -0.677320037781     0.059346619562     2.076506385635     1.007825032070
           H         -1.021525037781    -1.283101380438     0.970990385635     1.007825032070
           C          0.013376962219    -0.990666380438    -1.320150614365    12.000000000000
           C          1.442112962219    -0.643563380438    -0.945519614365    12.000000000000
           H         -0.057678037781    -1.338541380438    -2.342412614365     1.007825032070
           H         -0.385973037781    -1.763036380438    -0.676744614365     1.007825032070
           C          1.574486962219     0.077834619562     0.397037385635    12.000000000000
           H          1.844572962219    -0.016294380438    -1.738294614365     1.007825032070
           H          2.034091962219    -1.555013380438    -0.936636614365     1.007825032070
           C          0.790515962219    -0.611736380438     1.512780385635    12.000000000000
           H          2.625687962219     0.130943619562     0.673183385635     1.007825032070
           H          1.230631962219     1.101383619562     0.289936385635     1.007825032070
           H          0.899512962219    -0.081153380438     2.453330385635     1.007825032070
           H          1.136083962219    -1.630300380438     1.665713385635     1.007825032070
           H         -0.269352037781    -0.654401380438     1.278392385635     1.007825032070

  Running in c1 symmetry.

  Rotational constants: A =      0.09911  B =      0.07425  C =      0.05384 [cm^-1]
  Rotational constants: A =   2971.21847  B =   2225.94796  C =   1614.12191 [MHz]
  Nuclear repulsion =  454.577457508284567

  Charge       = 0
  Multiplicity = 1
  Electrons    = 64
  Nalpha       = 32
  Nbeta        = 32

  ==> Algorithm <==

  SCF Algorithm Type is DF.
  DIIS enabled.
  MOM disabled.
  Fractional occupation disabled.
  Guess Type is CORE.
  Energy threshold   = 1.00e-06
  Density threshold  = 1.00e-06
  Integral threshold = 0.00e+00

  ==> Primary Basis <==

  Basis Set: 6-31G*
    Number of shells: 72
    Number of basis function: 144
    Number of Cartesian functions: 144
    Spherical Harmonics?: false
    Max angular momentum: 2

  ==> Pre-Iterations <==

   -------------------------------------------------------
    Irrep   Nso     Nmo     Nalpha   Nbeta   Ndocc  Nsocc
   -------------------------------------------------------
     A        144     144       0       0       0       0
   -------------------------------------------------------
    Total     144     144      32      32      32       0
   -------------------------------------------------------

 OEINTS: Overlap, kinetic, potential, dipole, and quadrupole integrals
         stored in file 35.

  ==> Integral Setup <==

  ==> DFJK: Density-Fitted J/K Matrices <==

    J tasked:                  Yes
    K tasked:                  Yes
    wK tasked:                  No
    OpenMP threads:              1
    Integrals threads:           1
    Memory (MB):              1430
    Algorithm:                Core
    Integral Cache:           NONE
    Schwarz Cutoff:          1E-12
    Fitting Condition:       1E-12

   => Auxiliary Basis Set <=

  Basis Set: 
    Number of shells: 300
    Number of basis function: 948
    Number of Cartesian functions: 948
    Spherical Harmonics?: false
    Max angular momentum: 3

  Minimum eigenvalue in the overlap matrix is 1.7778742468E-04.
  Using Symmetric Orthogonalization.
  SCF Guess: Core (One-Electron) Hamiltonian.

  ==> Iterations <==

                           Total Energy        Delta E     RMS |[F,P]|

   @DF-RHF iter   1:  -308.02468822916950   -3.08025e+02   6.68583e-02 
   @DF-RHF iter   2:  -241.15269215924189    6.68720e+01   6.22896e-02 DIIS
   @DF-RHF iter   3:  -307.30220560813638   -6.61495e+01   5.84854e-02 DIIS
   @DF-RHF iter   4:  -369.02202530357209   -6.17198e+01   3.02940e-02 DIIS
   @DF-RHF iter   5:  -373.10424348003590   -4.08222e+00   2.51697e-02 DIIS
   @DF-RHF iter   6:  -380.18405559815329   -7.07981e+00   8.17772e-03 DIIS
   @DF-RHF iter   7:  -380.86866784439741   -6.84612e-01   3.37346e-03 DIIS
   @DF-RHF iter   8:  -381.04049491757388   -1.71827e-01   1.09748e-03 DIIS
   @DF-RHF iter   9:  -381.08213658860183   -4.16417e-02   9.73940e-04 DIIS
   @DF-RHF iter  10:  -381.09920590989526   -1.70693e-02   7.01442e-04 DIIS
   @DF-RHF iter  11:  -381.11715188679199   -1.79460e-02   4.65617e-04 DIIS
   @DF-RHF iter  12:  -381.12701802915063   -9.86614e-03   1.20321e-04 DIIS
   @DF-RHF iter  13:  -381.12758707926110   -5.69050e-04   9.80552e-05 DIIS
   @DF-RHF iter  14:  -381.12825579379404   -6.68715e-04   4.79091e-05 DIIS
   @DF-RHF iter  15:  -381.12850119512842   -2.45401e-04   1.79461e-05 DIIS
   @DF-RHF iter  16:  -381.12854226454994   -4.10694e-05   1.10150e-05 DIIS
   @DF-RHF iter  17:  -381.12854561009459   -3.34554e-06   4.56130e-06 DIIS
   @DF-RHF iter  18:  -381.12854609015909   -4.80065e-07   1.09546e-06 DIIS
   @DF-RHF iter  19:  -381.12854614728059   -5.71215e-08   4.79087e-07 DIIS

  ==> Post-Iterations <==

    Orbital Energies (a.u.)
    -----------------------

    Doubly Occupied:                                                      

       1A    -20.610737     2A    -20.546669     3A    -11.397035  
       4A    -11.394444     5A    -11.304097     6A    -11.293705  
       7A    -11.248249     8A    -11.241430     9A     -1.568025  
      10A     -1.471318    11A     -1.374447    12A     -1.123022  
      13A     -1.036568    14A     -0.951608    15A     -0.893548  
      16A     -0.850199    17A     -0.807327    18A     -0.780715  
      19A     -0.722505    20A     -0.689457    21A     -0.666858  
      22A     -0.628922    23A     -0.604092    24A     -0.581773  
      25A     -0.561607    26A     -0.554102    27A     -0.515100  
      28A     -0.501673    29A     -0.484336    30A     -0.456874  
      31A     -0.447257    32A     -0.149713  

    Virtual:                                                              

      33A      0.151334    34A      0.178306    35A      0.221193  
      36A      0.256699    37A      0.265132    38A      0.267265  
      39A      0.284955    40A      0.292455    41A      0.303312  
      42A      0.321068    43A      0.353066    44A      0.362193  
      45A      0.393623    46A      0.404485    47A      0.419490  
      48A      0.452681    49A      0.501336    50A      0.512094  
      51A      0.525133    52A      0.573963    53A      0.604353  
      54A      0.700389    55A      0.721444    56A      0.736938  
      57A      0.743466    58A      0.783664    59A      0.790504  
      60A      0.828271    61A      0.859966    62A      0.890190  
      63A      0.897253    64A      0.914858    65A      0.948443  
      66A      0.978329    67A      0.995405    68A      1.003728  
      69A      1.058464    70A      1.087208    71A      1.103429  
      72A      1.104897    73A      1.128415    74A      1.145699  
      75A      1.148152    76A      1.155759    77A      1.197622  
      78A      1.204913    79A      1.220751    80A      1.261236  
      81A      1.286021    82A      1.299527    83A      1.342477  
      84A      1.392746    85A      1.446764    86A      1.451954  
      87A      1.509812    88A      1.555179    89A      1.610595  
      90A      1.636731    91A      1.701555    92A      1.720373  
      93A      1.728193    94A      1.784052    95A      1.894165  
      96A      1.935998    97A      1.958419    98A      2.004031  
      99A      2.038550   100A      2.062093   101A      2.087306  
     102A      2.120946   103A      2.162221   104A      2.187189  
     105A      2.205752   106A      2.222140   107A      2.248622  
     108A      2.303373   109A      2.316864   110A      2.342803  
     111A      2.352774   112A      2.381651   113A      2.433406  
     114A      2.476062   115A      2.502561   116A      2.576005  
     117A      2.599321   118A      2.625856   119A      2.648641  
     120A      2.692346   121A      2.720059   122A      2.762629  
     123A      2.773847   124A      2.828297   125A      2.948844  
     126A      2.974606   127A      3.037518   128A      3.057660  
     129A      3.077522   130A      3.119777   131A      3.152140  
     132A      3.286967   133A      3.421903   134A      3.555950  
     135A      4.290828   136A      4.482730   137A      4.643194  
     138A      4.703515   139A      4.776206   140A      4.869307  
     141A      4.942326   142A      5.003900   143A      5.057595  
     144A      8.521040  

    Final Occupation by Irrep:
              A 
    DOCC [    32 ]

  Energy converged.

  @DF-RHF Final Energy:  -381.12854614728059

   => Energetics <=

    Nuclear Repulsion Energy =            454.5774575082845672
    One-Electron Energy =               -1416.4969300051391201
    Two-Electron Energy =                 580.7909263495733967
    DFT Exchange-Correlation Energy =       0.0000000000000000
    Empirical Dispersion Energy =           0.0000000000000000
    PCM Polarization Energy =               0.0000000000000000
    EFP Energy =                            0.0000000000000000
    Total Energy =                       -381.1285461472810994

    Alert: EFP and PCM quantities not currently incorporated into SCF psivars.

Properties will be evaluated at   0.000000,   0.000000,   0.000000 Bohr
  ==> Properties <==


Properties computed using the SCF density matrix

  Nuclear Dipole Moment: (a.u.)
     X:     7.4108      Y:    -7.0791      Z:     4.3683

  Electronic Dipole Moment: (a.u.)
     X:    -6.1255      Y:     5.2361      Z:    -4.4237

  Dipole Moment: (a.u.)
     X:     1.2854      Y:    -1.8431      Z:    -0.0554     Total:     2.2477

  Dipole Moment: (Debye)
     X:     3.2670      Y:    -4.6846      Z:    -0.1408     Total:     5.7131


  Saving occupied orbitals to File 180.

*** tstop() called on cx1-1-1-1.cx1.hpc.ic.ac.uk at Tue Jul  5 17:13:56 2016
Module time:
	user time   =      20.20 seconds =       0.34 minutes
	system time =       0.20 seconds =       0.00 minutes
	total time  =         20 seconds =       0.33 minutes
Total time:
	user time   =      20.20 seconds =       0.34 minutes
	system time =       0.20 seconds =       0.00 minutes
	total time  =         20 seconds =       0.33 minutes


Properties will be evaluated at   0.000000,   0.000000,   0.000000 Bohr

Properties computed using the  density matrix

  Nuclear Dipole Moment: (a.u.)
     X:     7.4108      Y:    -7.0791      Z:     4.3683

  Electronic Dipole Moment: (a.u.)
     X:    -6.1255      Y:     5.2361      Z:    -4.4237

  Dipole Moment: (a.u.)
     X:     1.2854      Y:    -1.8431      Z:    -0.0554     Total:     2.2477

  Dipole Moment: (Debye)
     X:     3.2670      Y:    -4.6846      Z:    -0.1408     Total:     5.7131

  Quadrupole Moment: (Debye Ang)
    XX:   -55.8391     YY:   -53.2276     ZZ:   -49.8298
    XY:     3.4995     XZ:     0.0350     YZ:    -0.4213

  Traceless Quadrupole Moment: (Debye Ang)
    XX:    -2.8736     YY:    -0.2621     ZZ:     3.1357
    XY:     3.4995     XZ:     0.0350     YZ:    -0.4213

  Mulliken Charges: (a.u.)
   Center  Symbol    Alpha    Beta     Spin     Total
       1     O     4.27629  4.27629  0.00000 -0.55258
       2     C     2.58975  2.58975  0.00000  0.82050
       3     C     2.51321  2.51321  0.00000  0.97358
       4     O     4.30130  4.30130  0.00000 -0.60259
       5     H     0.33699  0.33699  0.00000  0.32602
       6     H     0.45965  0.45965  0.00000  0.08070
       7     H     0.48334  0.48334  0.00000  0.03331
       8     C     3.02650  3.02650  0.00000 -0.05300
       9     C     3.17339  3.17339  0.00000 -0.34678
      10     H     0.38997  0.38997  0.00000  0.22005
      11     H     0.41608  0.41608  0.00000  0.16784
      12     C     3.27680  3.27680  0.00000 -0.55360
      13     H     0.39705  0.39705  0.00000  0.20590
      14     H     0.41172  0.41172  0.00000  0.17656
      15     C     3.29973  3.29973  0.00000 -0.59946
      16     H     0.40194  0.40194  0.00000  0.19612
      17     H     0.37861  0.37861  0.00000  0.24279
      18     H     0.42945  0.42945  0.00000  0.14111
      19     H     0.37427  0.37427  0.00000  0.25147
      20     H     1.06397  1.06397  0.00000 -1.12795

   Total alpha = 32.00000, Total beta = 32.00000, Total charge =  0.00000


*** PSI4 exiting successfully. Buy a developer a beer!
