    -----------------------------------------------------------------------
          Psi4: An Open-Source Ab Initio Electronic Structure Package
                              Psi4 (no tag) Driver

                          Git: Rev {detached?}  

    J. M. Turney, A. C. Simmonett, R. M. Parrish, E. G. Hohenstein,
    F. A. Evangelista, J. T. Fermann, B. J. Mintz, L. A. Burns, J. J. Wilke,
    M. L. Abrams, N. J. Russ, M. L. Leininger, C. L. Janssen, E. T. Seidl,
    W. D. Allen, H. F. Schaefer, R. A. King, E. F. Valeev, C. D. Sherrill,
    and T. D. Crawford, WIREs Comput. Mol. Sci. 2, 556-565 (2012)
    (doi: 10.1002/wcms.93)

                         Additional Contributions by
    A. E. DePrince, M. Saitow, U. Bozkaya, A. Yu. Sokolov
    -----------------------------------------------------------------------


    Psi4 started on: Tue Jul  5 16:34:06 2016

    Process ID:   5810
    PSI4DATADIR: /export131/home/mjharvey/miniconda3/share
    Memory level set to 256.000 MB

  ==> Input File <==

--------------------------------------------------------------------------
set {
	reference rhf
	basis 6-31G*
}


set_num_threads( 1 )
memory 2 gb

molecule MOL {
0 1

H	 -1.836216	 1.387520	 -0.000064
C	 -1.301823	 0.443321	 -0.000031
O	 -0.003969	 0.658512	 0.000451
O	 -1.829879	 -0.616434	 -0.000857
C	 0.822590	 -0.317601	 0.633847
C	 0.550982	 -0.246441	 2.120953
H	 1.856696	 -0.101126	 0.403450
H	 0.585982	 -1.291615	 0.228126
H	 0.785972	 0.738295	 2.508391
H	 1.162480	 -0.975666	 2.642043
H	 -0.490870	 -0.457933	 2.332387

	symmetry c1
}
set optking {
	frozen_dihedral = ("
		7 5 3 2
	")
}

ee = energy('scf')
oeprop('DIPOLE', 'QUADRUPOLE', 'MULLIKEN_CHARGES')
f=open( 'psi4out.xyz', 'w' )
f.write( "11  " )
f.write( str(ee) + "\n" )
f.write( MOL.save_string_xyz() )
f.close()
--------------------------------------------------------------------------

  Memory set to   2.000 GiB by Python script.

*** tstart() called on cx1-3-6-1.cx1.hpc.ic.ac.uk
*** at Tue Jul  5 16:34:07 2016


         ---------------------------------------------------------
                                   SCF
            by Justin Turney, Rob Parrish, and Andy Simmonett
                              RHF Reference
                        1 Threads,   2000 MiB Core
         ---------------------------------------------------------

  ==> Geometry <==

    Molecular point group: c1
    Full point group: C1

    Geometry (in Angstrom), charge = 0, multiplicity = 1:

       Center              X                  Y                   Z               Mass       
    ------------   -----------------  -----------------  -----------------  -----------------
           H         -1.479757234811     1.407532007878    -0.556929956315     1.007825032070
           C         -0.945364234811     0.463333007878    -0.556896956315    12.000000000000
           O          0.352489765189     0.678524007878    -0.556414956315    15.994914619560
           O         -1.473420234811    -0.596421992122    -0.557722956315    15.994914619560
           C          1.179048765189    -0.297588992122     0.076981043685    12.000000000000
           C          0.907440765189    -0.226428992122     1.564087043685    12.000000000000
           H          2.213154765189    -0.081113992122    -0.153415956315     1.007825032070
           H          0.942440765189    -1.271602992122    -0.328739956315     1.007825032070
           H          1.142430765189     0.758307007878     1.951525043685     1.007825032070
           H          1.518938765189    -0.955653992122     2.085177043685     1.007825032070
           H         -0.134411234811    -0.437920992122     1.775521043685     1.007825032070

  Running in c1 symmetry.

  Rotational constants: A =      0.33670  B =      0.13115  C =      0.11398 [cm^-1]
  Rotational constants: A =  10093.96748  B =   3931.73419  C =   3417.18256 [MHz]
  Nuclear repulsion =  183.477323987384267

  Charge       = 0
  Multiplicity = 1
  Electrons    = 40
  Nalpha       = 20
  Nbeta        = 20

  ==> Algorithm <==

  SCF Algorithm Type is DF.
  DIIS enabled.
  MOM disabled.
  Fractional occupation disabled.
  Guess Type is CORE.
  Energy threshold   = 1.00e-06
  Density threshold  = 1.00e-06
  Integral threshold = 0.00e+00

  ==> Primary Basis <==

  Basis Set: 6-31G*
    Number of shells: 42
    Number of basis function: 87
    Number of Cartesian functions: 87
    Spherical Harmonics?: false
    Max angular momentum: 2

  ==> Pre-Iterations <==

   -------------------------------------------------------
    Irrep   Nso     Nmo     Nalpha   Nbeta   Ndocc  Nsocc
   -------------------------------------------------------
     A         87      87       0       0       0       0
   -------------------------------------------------------
    Total      87      87      20      20      20       0
   -------------------------------------------------------

 OEINTS: Overlap, kinetic, potential, dipole, and quadrupole integrals
         stored in file 35.

  ==> Integral Setup <==

  ==> DFJK: Density-Fitted J/K Matrices <==

    J tasked:                  Yes
    K tasked:                  Yes
    wK tasked:                  No
    OpenMP threads:              1
    Integrals threads:           1
    Memory (MB):              1430
    Algorithm:                Core
    Integral Cache:           NONE
    Schwarz Cutoff:          1E-12
    Fitting Condition:       1E-12

   => Auxiliary Basis Set <=

  Basis Set: 
    Number of shells: 174
    Number of basis function: 555
    Number of Cartesian functions: 555
    Spherical Harmonics?: false
    Max angular momentum: 3

  Minimum eigenvalue in the overlap matrix is 4.6751034290E-03.
  Using Symmetric Orthogonalization.
  SCF Guess: Core (One-Electron) Hamiltonian.

  ==> Iterations <==

                           Total Energy        Delta E     RMS |[F,P]|

   @DF-RHF iter   1:  -216.78088686527403   -2.16781e+02   8.38660e-02 
   @DF-RHF iter   2:  -162.48435242898566    5.42965e+01   8.91175e-02 DIIS
   @DF-RHF iter   3:  -245.23511675197275   -8.27508e+01   3.78240e-02 DIIS
   @DF-RHF iter   4:  -223.75007911209630    2.14850e+01   8.48094e-02 DIIS
   @DF-RHF iter   5:  -240.60419951006915   -1.68541e+01   5.66874e-02 DIIS
   @DF-RHF iter   6:  -261.62512230597997   -2.10209e+01   3.05797e-02 DIIS
   @DF-RHF iter   7:  -264.01325822446029   -2.38814e+00   2.13328e-02 DIIS
   @DF-RHF iter   8:  -266.54763425002284   -2.53438e+00   8.03423e-03 DIIS
   @DF-RHF iter   9:  -266.78063114195140   -2.32997e-01   2.67540e-03 DIIS
   @DF-RHF iter  10:  -266.80956858188642   -2.89374e-02   1.48427e-03 DIIS
   @DF-RHF iter  11:  -266.81860342003256   -9.03484e-03   6.80939e-04 DIIS
   @DF-RHF iter  12:  -266.82093628619680   -2.33287e-03   1.67156e-04 DIIS
   @DF-RHF iter  13:  -266.82105676941887   -1.20483e-04   4.88995e-05 DIIS
   @DF-RHF iter  14:  -266.82107265009950   -1.58807e-05   1.32252e-05 DIIS
   @DF-RHF iter  15:  -266.82107435472085   -1.70462e-06   4.45659e-06 DIIS
   @DF-RHF iter  16:  -266.82107464314754   -2.88427e-07   1.70312e-06 DIIS
   @DF-RHF iter  17:  -266.82107466972616   -2.65786e-08   6.17084e-07 DIIS

  ==> Post-Iterations <==

    Orbital Energies (a.u.)
    -----------------------

    Doubly Occupied:                                                      

       1A    -20.607565     2A    -20.559226     3A    -11.379718  
       4A    -11.294035     5A    -11.225465     6A     -1.475900  
       7A     -1.375020     8A     -1.049337     9A     -0.913581  
      10A     -0.796355    11A     -0.743905    12A     -0.687434  
      13A     -0.663690    14A     -0.624424    15A     -0.565895  
      16A     -0.546471    17A     -0.541777    18A     -0.498537  
      19A     -0.461577    20A     -0.450622  

    Virtual:                                                              

      21A      0.185907    22A      0.246634    23A      0.277873  
      24A      0.288689    25A      0.300747    26A      0.310961  
      27A      0.337640    28A      0.351517    29A      0.405272  
      30A      0.460148    31A      0.514402    32A      0.705057  
      33A      0.708413    34A      0.733355    35A      0.759158  
      36A      0.797399    37A      0.862998    38A      0.904721  
      39A      0.954349    40A      0.989688    41A      1.030090  
      42A      1.094334    43A      1.106911    44A      1.118551  
      45A      1.155170    46A      1.175634    47A      1.186124  
      48A      1.225542    49A      1.262344    50A      1.278340  
      51A      1.323481    52A      1.364238    53A      1.416558  
      54A      1.503613    55A      1.603293    56A      1.684406  
      57A      1.739496    58A      1.741981    59A      1.815340  
      60A      1.907608    61A      1.970034    62A      2.054750  
      63A      2.131400    64A      2.139072    65A      2.215275  
      66A      2.240503    67A      2.252531    68A      2.337919  
      69A      2.421801    70A      2.527996    71A      2.565902  
      72A      2.597025    73A      2.661023    74A      2.741345  
      75A      2.772139    76A      2.841490    77A      2.949747  
      78A      3.021507    79A      3.108711    80A      3.296987  
      81A      3.328098    82A      3.458091    83A      4.301521  
      84A      4.406380    85A      4.593513    86A      4.636800  
      87A      4.854447  

    Final Occupation by Irrep:
              A 
    DOCC [    20 ]

  Energy converged.

  @DF-RHF Final Energy:  -266.82107466972616

   => Energetics <=

    Nuclear Repulsion Energy =            183.4773239873842670
    One-Electron Energy =                -727.6758528952897223
    Two-Electron Energy =                 277.3774542381792685
    DFT Exchange-Correlation Energy =       0.0000000000000000
    Empirical Dispersion Energy =           0.0000000000000000
    PCM Polarization Energy =               0.0000000000000000
    EFP Energy =                            0.0000000000000000
    Total Energy =                       -266.8210746697262152

    Alert: EFP and PCM quantities not currently incorporated into SCF psivars.

Properties will be evaluated at   0.000000,   0.000000,   0.000000 Bohr
  ==> Properties <==


Properties computed using the SCF density matrix

  Nuclear Dipole Moment: (a.u.)
     X:     3.9346      Y:    -0.5438      Z:     4.4693

  Electronic Dipole Moment: (a.u.)
     X:    -3.2541      Y:     0.9639      Z:    -4.0609

  Dipole Moment: (a.u.)
     X:     0.6805      Y:     0.4201      Z:     0.4084     Total:     0.8980

  Dipole Moment: (Debye)
     X:     1.7296      Y:     1.0678      Z:     1.0381     Total:     2.2824


  Saving occupied orbitals to File 180.

*** tstop() called on cx1-3-6-1.cx1.hpc.ic.ac.uk at Tue Jul  5 16:34:10 2016
Module time:
	user time   =       3.59 seconds =       0.06 minutes
	system time =       0.03 seconds =       0.00 minutes
	total time  =          3 seconds =       0.05 minutes
Total time:
	user time   =       3.59 seconds =       0.06 minutes
	system time =       0.03 seconds =       0.00 minutes
	total time  =          3 seconds =       0.05 minutes


Properties will be evaluated at   0.000000,   0.000000,   0.000000 Bohr

Properties computed using the  density matrix

  Nuclear Dipole Moment: (a.u.)
     X:     3.9346      Y:    -0.5438      Z:     4.4693

  Electronic Dipole Moment: (a.u.)
     X:    -3.2541      Y:     0.9639      Z:    -4.0609

  Dipole Moment: (a.u.)
     X:     0.6805      Y:     0.4201      Z:     0.4084     Total:     0.8980

  Dipole Moment: (Debye)
     X:     1.7296      Y:     1.0678      Z:     1.0381     Total:     2.2824

  Quadrupole Moment: (Debye Ang)
    XX:   -30.4913     YY:   -30.5196     ZZ:   -29.9808
    XY:    -5.0589     XZ:     0.0650     YZ:    -0.7378

  Traceless Quadrupole Moment: (Debye Ang)
    XX:    -0.1607     YY:    -0.1891     ZZ:     0.3498
    XY:    -5.0589     XZ:     0.0650     YZ:    -0.7378

  Mulliken Charges: (a.u.)
   Center  Symbol    Alpha    Beta     Spin     Total
       1     H     0.41357  0.41357  0.00000  0.17285
       2     C     2.72724  2.72724  0.00000  0.54553
       3     O     4.29214  4.29214  0.00000 -0.58429
       4     O     4.25878  4.25878  0.00000 -0.51756
       5     C     3.01184  3.01184  0.00000 -0.02368
       6     C     3.26018  3.26018  0.00000 -0.52035
       7     H     0.40510  0.40510  0.00000  0.18980
       8     H     0.40056  0.40056  0.00000  0.19889
       9     H     0.41177  0.41177  0.00000  0.17646
      10     H     0.41493  0.41493  0.00000  0.17013
      11     H     0.40388  0.40388  0.00000  0.19223

   Total alpha = 20.00000, Total beta = 20.00000, Total charge = -0.00000


*** PSI4 exiting successfully. Buy a developer a beer!
