    -----------------------------------------------------------------------
          Psi4: An Open-Source Ab Initio Electronic Structure Package
                              Psi4 (no tag) Driver

                          Git: Rev {detached?}  

    J. M. Turney, A. C. Simmonett, R. M. Parrish, E. G. Hohenstein,
    F. A. Evangelista, J. T. Fermann, B. J. Mintz, L. A. Burns, J. J. Wilke,
    M. L. Abrams, N. J. Russ, M. L. Leininger, C. L. Janssen, E. T. Seidl,
    W. D. Allen, H. F. Schaefer, R. A. King, E. F. Valeev, C. D. Sherrill,
    and T. D. Crawford, WIREs Comput. Mol. Sci. 2, 556-565 (2012)
    (doi: 10.1002/wcms.93)

                         Additional Contributions by
    A. E. DePrince, M. Saitow, U. Bozkaya, A. Yu. Sokolov
    -----------------------------------------------------------------------


    Psi4 started on: Tue Jul  5 16:40:06 2016

    Process ID:  23516
    PSI4DATADIR: /export131/home/mjharvey/miniconda3/share
    Memory level set to 256.000 MB

  ==> Input File <==

--------------------------------------------------------------------------
set {
	reference rhf
	basis 6-31G*
}


set_num_threads( 1 )
memory 2 gb

molecule MOL {
0 1

O	 1.441320	 0.532077	 0.995555
C	 0.861134	 0.272526	 -0.014869
C	 -0.623889	 -0.118271	 -0.003699
C	 1.600124	 0.322104	 -1.340554
C	 -0.895332	 -1.256461	 -1.002431
C	 -1.473649	 1.103340	 -0.370799
C	 -0.983900	 -0.581483	 1.422328
H	 -0.615301	 -0.972064	 -2.012700
H	 -1.954261	 -1.493213	 -1.010207
H	 -0.360539	 -2.164946	 -0.747760
H	 -1.227476	 1.468527	 -1.361691
H	 -2.526716	 0.838935	 -0.358521
H	 -1.314819	 1.915855	 0.325860
H	 -2.039679	 -0.828001	 1.472951
H	 -0.427637	 -1.464071	 1.720694
H	 -0.789023	 0.202493	 2.147048
H	 1.360236	 1.248643	 -1.853818
H	 2.663468	 0.302506	 -1.145534
H	 1.332966	 -0.494366	 -2.000269

	symmetry c1
}
ee = energy('scf')
oeprop('DIPOLE', 'QUADRUPOLE', 'MULLIKEN_CHARGES')
f=open( 'psi4out.xyz', 'w' )
f.write( "19  " )
f.write( str(ee) + "\n" )
f.write( MOL.save_string_xyz() )
f.close()
--------------------------------------------------------------------------

  Memory set to   2.000 GiB by Python script.

*** tstart() called on cx1-3-15-2.cx1.hpc.ic.ac.uk
*** at Tue Jul  5 16:40:06 2016


         ---------------------------------------------------------
                                   SCF
            by Justin Turney, Rob Parrish, and Andy Simmonett
                              RHF Reference
                        1 Threads,   2000 MiB Core
         ---------------------------------------------------------

  ==> Geometry <==

    Molecular point group: c1
    Full point group: C1

    Geometry (in Angstrom), charge = 0, multiplicity = 1:

       Center              X                  Y                   Z               Mass       
    ------------   -----------------  -----------------  -----------------  -----------------
           O          1.452083368624     0.492505960304     1.042095318373    15.994914619560
           C          0.871897368624     0.232954960304     0.031671318373    12.000000000000
           C         -0.613125631376    -0.157842039696     0.042841318373    12.000000000000
           C          1.610887368624     0.282532960304    -1.294013681627    12.000000000000
           C         -0.884568631376    -1.296032039696    -0.955890681627    12.000000000000
           C         -1.462885631376     1.063768960304    -0.324258681627    12.000000000000
           C         -0.973136631376    -0.621054039696     1.468868318373    12.000000000000
           H         -0.604537631376    -1.011635039696    -1.966159681627     1.007825032070
           H         -1.943497631376    -1.532784039696    -0.963666681627     1.007825032070
           H         -0.349775631376    -2.204517039696    -0.701219681627     1.007825032070
           H         -1.216712631376     1.428955960304    -1.315150681627     1.007825032070
           H         -2.515952631376     0.799363960304    -0.311980681627     1.007825032070
           H         -1.304055631376     1.876283960304     0.372400318373     1.007825032070
           H         -2.028915631376    -0.867572039696     1.519491318373     1.007825032070
           H         -0.416873631376    -1.503642039696     1.767234318373     1.007825032070
           H         -0.778259631376     0.162921960304     2.193588318373     1.007825032070
           H          1.370999368624     1.209071960304    -1.807277681627     1.007825032070
           H          2.674231368624     0.262934960304    -1.098993681627     1.007825032070
           H          1.343729368624    -0.533937039696    -1.953728681627     1.007825032070

  Running in c1 symmetry.

  Rotational constants: A =      0.10718  B =      0.07687  C =      0.06406 [cm^-1]
  Rotational constants: A =   3213.18979  B =   2304.39788  C =   1920.53399 [MHz]
  Nuclear repulsion =  326.354381076601044

  Charge       = 0
  Multiplicity = 1
  Electrons    = 56
  Nalpha       = 28
  Nbeta        = 28

  ==> Algorithm <==

  SCF Algorithm Type is DF.
  DIIS enabled.
  MOM disabled.
  Fractional occupation disabled.
  Guess Type is CORE.
  Energy threshold   = 1.00e-06
  Density threshold  = 1.00e-06
  Integral threshold = 0.00e+00

  ==> Primary Basis <==

  Basis Set: 6-31G*
    Number of shells: 66
    Number of basis function: 129
    Number of Cartesian functions: 129
    Spherical Harmonics?: false
    Max angular momentum: 2

  ==> Pre-Iterations <==

   -------------------------------------------------------
    Irrep   Nso     Nmo     Nalpha   Nbeta   Ndocc  Nsocc
   -------------------------------------------------------
     A        129     129       0       0       0       0
   -------------------------------------------------------
    Total     129     129      28      28      28       0
   -------------------------------------------------------

 OEINTS: Overlap, kinetic, potential, dipole, and quadrupole integrals
         stored in file 35.

  ==> Integral Setup <==

  ==> DFJK: Density-Fitted J/K Matrices <==

    J tasked:                  Yes
    K tasked:                  Yes
    wK tasked:                  No
    OpenMP threads:              1
    Integrals threads:           1
    Memory (MB):              1430
    Algorithm:                Core
    Integral Cache:           NONE
    Schwarz Cutoff:          1E-12
    Fitting Condition:       1E-12

   => Auxiliary Basis Set <=

  Basis Set: 
    Number of shells: 276
    Number of basis function: 867
    Number of Cartesian functions: 867
    Spherical Harmonics?: false
    Max angular momentum: 3

  Minimum eigenvalue in the overlap matrix is 3.0790747857E-03.
  Using Symmetric Orthogonalization.
  SCF Guess: Core (One-Electron) Hamiltonian.

  ==> Iterations <==

                           Total Energy        Delta E     RMS |[F,P]|

   @DF-RHF iter   1:  -207.64923603223201   -2.07649e+02   9.16827e-02 
   @DF-RHF iter   2:  -248.76420548396038   -4.11150e+01   4.23096e-02 DIIS
   @DF-RHF iter   3:  -237.35592717885402    1.14083e+01   6.78706e-02 DIIS
   @DF-RHF iter   4:  -290.78191321028044   -5.34260e+01   4.14573e-02 DIIS
   @DF-RHF iter   5:  -298.99793979865387   -8.21603e+00   3.02907e-02 DIIS
   @DF-RHF iter   6:  -305.82157837136367   -6.82364e+00   1.75412e-02 DIIS
   @DF-RHF iter   7:  -308.39250474264236   -2.57093e+00   7.78975e-03 DIIS
   @DF-RHF iter   8:  -308.96712359926289   -5.74619e-01   2.81757e-03 DIIS
   @DF-RHF iter   9:  -309.05087769405998   -8.37541e-02   1.01840e-03 DIIS
   @DF-RHF iter  10:  -309.05854430912484   -7.66662e-03   2.64520e-04 DIIS
   @DF-RHF iter  11:  -309.05972394700439   -1.17964e-03   1.32758e-04 DIIS
   @DF-RHF iter  12:  -309.05995240183177   -2.28455e-04   4.55386e-05 DIIS
   @DF-RHF iter  13:  -309.06000182028492   -4.94185e-05   1.34247e-05 DIIS
   @DF-RHF iter  14:  -309.06000604948247   -4.22920e-06   3.14202e-06 DIIS
   @DF-RHF iter  15:  -309.06000628081870   -2.31336e-07   1.05161e-06 DIIS
   @DF-RHF iter  16:  -309.06000630946050   -2.86418e-08   4.62310e-07 DIIS

  ==> Post-Iterations <==

    Orbital Energies (a.u.)
    -----------------------

    Doubly Occupied:                                                      

       1A    -20.548513     2A    -11.322882     3A    -11.246310  
       4A    -11.225474     5A    -11.224212     6A    -11.223559  
       7A    -11.208660     8A     -1.394899     9A     -1.109851  
      10A     -1.001892    11A     -0.946950    12A     -0.934466  
      13A     -0.835253    14A     -0.703298    15A     -0.666339  
      16A     -0.631991    17A     -0.617933    18A     -0.597605  
      19A     -0.593005    20A     -0.567721    21A     -0.548562  
      22A     -0.540577    23A     -0.524122    24A     -0.509413  
      25A     -0.499358    26A     -0.469972    27A     -0.466345  
      28A     -0.392544  

    Virtual:                                                              

      29A      0.166917    30A      0.210404    31A      0.264607  
      32A      0.275949    33A      0.277418    34A      0.302250  
      35A      0.306152    36A      0.306820    37A      0.329266  
      38A      0.350961    39A      0.352302    40A      0.367424  
      41A      0.375665    42A      0.394618    43A      0.402382  
      44A      0.416663    45A      0.430495    46A      0.496569  
      47A      0.525787    48A      0.688050    49A      0.697299  
      50A      0.714115    51A      0.756604    52A      0.772056  
      53A      0.795807    54A      0.824705    55A      0.866223  
      56A      0.899634    57A      0.922009    58A      0.946335  
      59A      0.969571    60A      0.991419    61A      1.008034  
      62A      1.049536    63A      1.060446    64A      1.079513  
      65A      1.109104    66A      1.129103    67A      1.142974  
      68A      1.156997    69A      1.160648    70A      1.174570  
      71A      1.183803    72A      1.204536    73A      1.210582  
      74A      1.217596    75A      1.229231    76A      1.255351  
      77A      1.275271    78A      1.287992    79A      1.311776  
      80A      1.364103    81A      1.405778    82A      1.428621  
      83A      1.532511    84A      1.627721    85A      1.648197  
      86A      1.734224    87A      1.802064    88A      1.866406  
      89A      1.934700    90A      1.954410    91A      1.977676  
      92A      2.018411    93A      2.086406    94A      2.093859  
      95A      2.140359    96A      2.179544    97A      2.204344  
      98A      2.217871    99A      2.266487   100A      2.288003  
     101A      2.308266   102A      2.400181   103A      2.411764  
     104A      2.445949   105A      2.475722   106A      2.503754  
     107A      2.560629   108A      2.602548   109A      2.603402  
     110A      2.614878   111A      2.623617   112A      2.692782  
     113A      2.730366   114A      2.815292   115A      2.864797  
     116A      2.913878   117A      3.010106   118A      3.042661  
     119A      3.082906   120A      3.172921   121A      3.384294  
     122A      3.410642   123A      4.475952   124A      4.563676  
     125A      4.678720   126A      4.743906   127A      4.768526  
     128A      4.895214   129A      5.133956  

    Final Occupation by Irrep:
              A 
    DOCC [    28 ]

  Energy converged.

  @DF-RHF Final Energy:  -309.06000630946050

   => Energetics <=

    Nuclear Repulsion Energy =            326.3543810766010438
    One-Electron Energy =               -1065.7252664968191311
    Two-Electron Energy =                 430.3108791107559910
    DFT Exchange-Correlation Energy =       0.0000000000000000
    Empirical Dispersion Energy =           0.0000000000000000
    PCM Polarization Energy =               0.0000000000000000
    EFP Energy =                            0.0000000000000000
    Total Energy =                       -309.0600063094620964

    Alert: EFP and PCM quantities not currently incorporated into SCF psivars.

Properties will be evaluated at   0.000000,   0.000000,   0.000000 Bohr
  ==> Properties <==


Properties computed using the SCF density matrix

  Nuclear Dipole Moment: (a.u.)
     X:    -5.4019      Y:    -1.7925      Z:    -3.9937

  Electronic Dipole Moment: (a.u.)
     X:     4.7805      Y:     1.5751      Z:     3.0273

  Dipole Moment: (a.u.)
     X:    -0.6214      Y:    -0.2173      Z:    -0.9665     Total:     1.1694

  Dipole Moment: (Debye)
     X:    -1.5795      Y:    -0.5524      Z:    -2.4565     Total:     2.9723


  Saving occupied orbitals to File 180.

*** tstop() called on cx1-3-15-2.cx1.hpc.ic.ac.uk at Tue Jul  5 16:40:18 2016
Module time:
	user time   =      11.30 seconds =       0.19 minutes
	system time =       0.08 seconds =       0.00 minutes
	total time  =         12 seconds =       0.20 minutes
Total time:
	user time   =      11.30 seconds =       0.19 minutes
	system time =       0.08 seconds =       0.00 minutes
	total time  =         12 seconds =       0.20 minutes


Properties will be evaluated at   0.000000,   0.000000,   0.000000 Bohr

Properties computed using the  density matrix

  Nuclear Dipole Moment: (a.u.)
     X:    -5.4019      Y:    -1.7925      Z:    -3.9937

  Electronic Dipole Moment: (a.u.)
     X:     4.7805      Y:     1.5751      Z:     3.0273

  Dipole Moment: (a.u.)
     X:    -0.6214      Y:    -0.2173      Z:    -0.9665     Total:     1.1694

  Dipole Moment: (Debye)
     X:    -1.5795      Y:    -0.5524      Z:    -2.4565     Total:     2.9723

  Quadrupole Moment: (Debye Ang)
    XX:   -47.0899     YY:   -44.5909     ZZ:   -47.0071
    XY:    -1.3542     XZ:    -4.0725     YZ:    -1.3142

  Traceless Quadrupole Moment: (Debye Ang)
    XX:    -0.8606     YY:     1.6384     ZZ:    -0.7778
    XY:    -1.3542     XZ:    -4.0725     YZ:    -1.3142

  Mulliken Charges: (a.u.)
   Center  Symbol    Alpha    Beta     Spin     Total
       1     O     4.26450  4.26450  0.00000 -0.52900
       2     C     2.72595  2.72595  0.00000  0.54810
       3     C     3.06758  3.06758  0.00000 -0.13517
       4     C     3.29024  3.29024  0.00000 -0.58048
       5     C     3.24387  3.24387  0.00000 -0.48774
       6     C     3.23884  3.23884  0.00000 -0.47768
       7     C     3.22824  3.22824  0.00000 -0.45647
       8     H     0.41807  0.41807  0.00000  0.16387
       9     H     0.41359  0.41359  0.00000  0.17282
      10     H     0.41407  0.41407  0.00000  0.17186
      11     H     0.41911  0.41911  0.00000  0.16178
      12     H     0.41308  0.41308  0.00000  0.17385
      13     H     0.40874  0.40874  0.00000  0.18251
      14     H     0.42403  0.42403  0.00000  0.15195
      15     H     0.41617  0.41617  0.00000  0.16766
      16     H     0.40528  0.40528  0.00000  0.18944
      17     H     0.40533  0.40533  0.00000  0.18934
      18     H     0.39594  0.39594  0.00000  0.20812
      19     H     0.40738  0.40738  0.00000  0.18524

   Total alpha = 28.00000, Total beta = 28.00000, Total charge = -0.00000


*** PSI4 exiting successfully. Buy a developer a beer!
