    -----------------------------------------------------------------------
          Psi4: An Open-Source Ab Initio Electronic Structure Package
                              Psi4 (no tag) Driver

                          Git: Rev {detached?}  

    J. M. Turney, A. C. Simmonett, R. M. Parrish, E. G. Hohenstein,
    F. A. Evangelista, J. T. Fermann, B. J. Mintz, L. A. Burns, J. J. Wilke,
    M. L. Abrams, N. J. Russ, M. L. Leininger, C. L. Janssen, E. T. Seidl,
    W. D. Allen, H. F. Schaefer, R. A. King, E. F. Valeev, C. D. Sherrill,
    and T. D. Crawford, WIREs Comput. Mol. Sci. 2, 556-565 (2012)
    (doi: 10.1002/wcms.93)

                         Additional Contributions by
    A. E. DePrince, M. Saitow, U. Bozkaya, A. Yu. Sokolov
    -----------------------------------------------------------------------


    Psi4 started on: Tue Jul  5 16:47:07 2016

    Process ID:  18915
    PSI4DATADIR: /export131/home/mjharvey/miniconda3/share
    Memory level set to 256.000 MB

  ==> Input File <==

--------------------------------------------------------------------------
set {
	reference rhf
	basis 6-31G*
}


set_num_threads( 1 )
memory 2 gb

molecule MOL {
0 1

O	 -1.274952	 0.815046	 -0.849726
C	 -1.083277	 0.139568	 0.115197
C	 0.323299	 -0.082943	 0.642902
C	 -2.218133	 -0.545959	 0.843196
C	 1.355627	 -0.005344	 -0.493127
H	 0.396251	 -1.044647	 1.143147
H	 0.528637	 0.693580	 1.371677
C	 1.155333	 1.223865	 -1.377534
H	 2.360126	 0.010252	 -0.075980
H	 1.280057	 -0.907677	 -1.090809
H	 1.891536	 1.252673	 -2.174319
H	 1.250670	 2.141594	 -0.804378
H	 0.170717	 1.219102	 -1.835306
H	 -2.008779	 -1.603663	 0.973971
H	 -3.140348	 -0.419155	 0.293490
H	 -2.327673	 -0.116033	 1.835349

	symmetry c1
}
set optking {
	frozen_dihedral = ("
		9 5 3 2
	")
}

ee = energy('scf')
oeprop('DIPOLE', 'QUADRUPOLE', 'MULLIKEN_CHARGES')
f=open( 'psi4out.xyz', 'w' )
f.write( "16  " )
f.write( str(ee) + "\n" )
f.write( MOL.save_string_xyz() )
f.close()
--------------------------------------------------------------------------

  Memory set to   2.000 GiB by Python script.

*** tstart() called on cx1-3-15-3.cx1.hpc.ic.ac.uk
*** at Tue Jul  5 16:47:07 2016


         ---------------------------------------------------------
                                   SCF
            by Justin Turney, Rob Parrish, and Andy Simmonett
                              RHF Reference
                        1 Threads,   2000 MiB Core
         ---------------------------------------------------------

  ==> Geometry <==

    Molecular point group: c1
    Full point group: C1

    Geometry (in Angstrom), charge = 0, multiplicity = 1:

       Center              X                  Y                   Z               Mass       
    ------------   -----------------  -----------------  -----------------  -----------------
           O         -0.977597684681     0.547570592424    -0.650015828369    15.994914619560
           C         -0.785922684681    -0.127907407576     0.314907171631    12.000000000000
           C          0.620653315319    -0.350418407576     0.842612171631    12.000000000000
           C         -1.920778684681    -0.813434407576     1.042906171631    12.000000000000
           C          1.652981315319    -0.272819407576    -0.293416828369    12.000000000000
           H          0.693605315319    -1.312122407576     1.342857171631     1.007825032070
           H          0.825991315319     0.426104592424     1.571387171631     1.007825032070
           C          1.452687315319     0.956389592424    -1.177823828369    12.000000000000
           H          2.657480315319    -0.257223407576     0.123730171631     1.007825032070
           H          1.577411315319    -1.175152407576    -0.891098828369     1.007825032070
           H          2.188890315319     0.985197592424    -1.974608828369     1.007825032070
           H          1.548024315319     1.874118592424    -0.604667828369     1.007825032070
           H          0.468071315319     0.951626592424    -1.635595828369     1.007825032070
           H         -1.711424684681    -1.871138407576     1.173681171631     1.007825032070
           H         -2.842993684681    -0.686630407576     0.493200171631     1.007825032070
           H         -2.030318684681    -0.383508407576     2.035059171631     1.007825032070

  Running in c1 symmetry.

  Rotational constants: A =      0.23346  B =      0.08237  C =      0.06527 [cm^-1]
  Rotational constants: A =   6999.08849  B =   2469.37788  C =   1956.63037 [MHz]
  Nuclear repulsion =  246.132602029015885

  Charge       = 0
  Multiplicity = 1
  Electrons    = 48
  Nalpha       = 24
  Nbeta        = 24

  ==> Algorithm <==

  SCF Algorithm Type is DF.
  DIIS enabled.
  MOM disabled.
  Fractional occupation disabled.
  Guess Type is CORE.
  Energy threshold   = 1.00e-06
  Density threshold  = 1.00e-06
  Integral threshold = 0.00e+00

  ==> Primary Basis <==

  Basis Set: 6-31G*
    Number of shells: 56
    Number of basis function: 110
    Number of Cartesian functions: 110
    Spherical Harmonics?: false
    Max angular momentum: 2

  ==> Pre-Iterations <==

   -------------------------------------------------------
    Irrep   Nso     Nmo     Nalpha   Nbeta   Ndocc  Nsocc
   -------------------------------------------------------
     A        110     110       0       0       0       0
   -------------------------------------------------------
    Total     110     110      24      24      24       0
   -------------------------------------------------------

 OEINTS: Overlap, kinetic, potential, dipole, and quadrupole integrals
         stored in file 35.

  ==> Integral Setup <==

  ==> DFJK: Density-Fitted J/K Matrices <==

    J tasked:                  Yes
    K tasked:                  Yes
    wK tasked:                  No
    OpenMP threads:              1
    Integrals threads:           1
    Memory (MB):              1430
    Algorithm:                Core
    Integral Cache:           NONE
    Schwarz Cutoff:          1E-12
    Fitting Condition:       1E-12

   => Auxiliary Basis Set <=

  Basis Set: 
    Number of shells: 234
    Number of basis function: 736
    Number of Cartesian functions: 736
    Spherical Harmonics?: false
    Max angular momentum: 3

  Minimum eigenvalue in the overlap matrix is 3.9400222760E-03.
  Using Symmetric Orthogonalization.
  SCF Guess: Core (One-Electron) Hamiltonian.

  ==> Iterations <==

                           Total Energy        Delta E     RMS |[F,P]|

   @DF-RHF iter   1:  -207.36769556158342   -2.07368e+02   7.91581e-02 
   @DF-RHF iter   2:  -200.02723703628837    7.34046e+00   6.04479e-02 DIIS
   @DF-RHF iter   3:  -243.73312698575998   -4.37059e+01   4.58942e-02 DIIS
   @DF-RHF iter   4:  -267.61170209693444   -2.38786e+01   1.66904e-02 DIIS
   @DF-RHF iter   5:  -266.25985321168571    1.35185e+00   2.07076e-02 DIIS
   @DF-RHF iter   6:  -269.84792586793901   -3.58807e+00   5.34260e-03 DIIS
   @DF-RHF iter   7:  -269.99433869416816   -1.46413e-01   1.23609e-03 DIIS
   @DF-RHF iter   8:  -270.00685137438461   -1.25127e-02   4.81053e-04 DIIS
   @DF-RHF iter   9:  -270.00888171726615   -2.03034e-03   1.39490e-04 DIIS
   @DF-RHF iter  10:  -270.00904856063437   -1.66843e-04   4.13874e-05 DIIS
   @DF-RHF iter  11:  -270.00906828290579   -1.97223e-05   1.52315e-05 DIIS
   @DF-RHF iter  12:  -270.00907135410125   -3.07120e-06   6.33881e-06 DIIS
   @DF-RHF iter  13:  -270.00907178067951   -4.26578e-07   1.83302e-06 DIIS
   @DF-RHF iter  14:  -270.00907184132996   -6.06504e-08   5.47868e-07 DIIS

  ==> Post-Iterations <==

    Orbital Energies (a.u.)
    -----------------------

    Doubly Occupied:                                                      

       1A    -20.549815     2A    -11.331596     3A    -11.232066  
       4A    -11.231342     5A    -11.219400     6A    -11.181174  
       7A     -1.403937     8A     -1.071870     9A     -1.016909  
      10A     -0.936352    11A     -0.818333    12A     -0.738044  
      13A     -0.670794    14A     -0.648821    15A     -0.615773  
      16A     -0.586927    17A     -0.582121    18A     -0.549748  
      19A     -0.526545    20A     -0.503203    21A     -0.498248  
      22A     -0.473668    23A     -0.464729    24A     -0.382803  

    Virtual:                                                              

      25A      0.162436    26A      0.224359    27A      0.262953  
      28A      0.290390    29A      0.303596    30A      0.311491  
      31A      0.322008    32A      0.324321    33A      0.330168  
      34A      0.354155    35A      0.378164    36A      0.397088  
      37A      0.408649    38A      0.461591    39A      0.480206  
      40A      0.523717    41A      0.706834    42A      0.734960  
      43A      0.743926    44A      0.751917    45A      0.801749  
      46A      0.815789    47A      0.828712    48A      0.883187  
      49A      0.898643    50A      0.924231    51A      0.961941  
      52A      0.985945    53A      1.017005    54A      1.047104  
      55A      1.092388    56A      1.118481    57A      1.142605  
      58A      1.145598    59A      1.167514    60A      1.183044  
      61A      1.192411    62A      1.204460    63A      1.222655  
      64A      1.230350    65A      1.251568    66A      1.291844  
      67A      1.309335    68A      1.372718    69A      1.393828  
      70A      1.540040    71A      1.617539    72A      1.636706  
      73A      1.702323    74A      1.750147    75A      1.790053  
      76A      1.869042    77A      1.923416    78A      2.021380  
      79A      2.052688    80A      2.089242    81A      2.106055  
      82A      2.154826    83A      2.214034    84A      2.243080  
      85A      2.258769    86A      2.310303    87A      2.341386  
      88A      2.387971    89A      2.403159    90A      2.513090  
      91A      2.523357    92A      2.614491    93A      2.654274  
      94A      2.674502    95A      2.712526    96A      2.738423  
      97A      2.796851    98A      2.862642    99A      2.883324  
     100A      2.988395   101A      3.028469   102A      3.161092  
     103A      3.385556   104A      3.419532   105A      4.450062  
     106A      4.545790   107A      4.663853   108A      4.774898  
     109A      4.852654   110A      4.970900  

    Final Occupation by Irrep:
              A 
    DOCC [    24 ]

  Energy converged.

  @DF-RHF Final Energy:  -270.00907184132996

   => Energetics <=

    Nuclear Repulsion Energy =            246.1326020290158851
    One-Electron Energy =                -853.8149984327117181
    Two-Electron Energy =                 337.6733245623656785
    DFT Exchange-Correlation Energy =       0.0000000000000000
    Empirical Dispersion Energy =           0.0000000000000000
    PCM Polarization Energy =               0.0000000000000000
    EFP Energy =                            0.0000000000000000
    Total Energy =                       -270.0090718413301829

    Alert: EFP and PCM quantities not currently incorporated into SCF psivars.

Properties will be evaluated at   0.000000,   0.000000,   0.000000 Bohr
  ==> Properties <==


Properties computed using the SCF density matrix

  Nuclear Dipole Moment: (a.u.)
     X:     3.1590      Y:    -1.3555      Z:     1.5286

  Electronic Dipole Moment: (a.u.)
     X:    -3.1267      Y:     0.6858      Z:    -0.5802

  Dipole Moment: (a.u.)
     X:     0.0323      Y:    -0.6697      Z:     0.9485     Total:     1.1616

  Dipole Moment: (Debye)
     X:     0.0822      Y:    -1.7023      Z:     2.4108     Total:     2.9524


  Saving occupied orbitals to File 180.

*** tstop() called on cx1-3-15-3.cx1.hpc.ic.ac.uk at Tue Jul  5 16:47:14 2016
Module time:
	user time   =       6.49 seconds =       0.11 minutes
	system time =       0.05 seconds =       0.00 minutes
	total time  =          7 seconds =       0.12 minutes
Total time:
	user time   =       6.49 seconds =       0.11 minutes
	system time =       0.05 seconds =       0.00 minutes
	total time  =          7 seconds =       0.12 minutes


Properties will be evaluated at   0.000000,   0.000000,   0.000000 Bohr

Properties computed using the  density matrix

  Nuclear Dipole Moment: (a.u.)
     X:     3.1590      Y:    -1.3555      Z:     1.5286

  Electronic Dipole Moment: (a.u.)
     X:    -3.1267      Y:     0.6858      Z:    -0.5802

  Dipole Moment: (a.u.)
     X:     0.0323      Y:    -0.6697      Z:     0.9485     Total:     1.1616

  Dipole Moment: (Debye)
     X:     0.0822      Y:    -1.7023      Z:     2.4108     Total:     2.9524

  Quadrupole Moment: (Debye Ang)
    XX:   -38.8740     YY:   -38.5105     ZZ:   -38.4668
    XY:     1.4066     XZ:    -1.7026     YZ:     1.1993

  Traceless Quadrupole Moment: (Debye Ang)
    XX:    -0.2569     YY:     0.1066     ZZ:     0.1503
    XY:     1.4066     XZ:    -1.7026     YZ:     1.1993

  Mulliken Charges: (a.u.)
   Center  Symbol    Alpha    Beta     Spin     Total
       1     O     4.26477  4.26477  0.00000 -0.52953
       2     C     2.73242  2.73242  0.00000  0.53516
       3     C     3.21066  3.21066  0.00000 -0.42132
       4     C     3.28703  3.28703  0.00000 -0.57405
       5     C     3.15501  3.15501  0.00000 -0.31001
       6     H     0.41166  0.41166  0.00000  0.17669
       7     H     0.40300  0.40300  0.00000  0.19400
       8     C     3.24836  3.24836  0.00000 -0.49672
       9     H     0.41842  0.41842  0.00000  0.16316
      10     H     0.42045  0.42045  0.00000  0.15911
      11     H     0.43023  0.43023  0.00000  0.13954
      12     H     0.43002  0.43002  0.00000  0.13995
      13     H     0.37647  0.37647  0.00000  0.24706
      14     H     0.40874  0.40874  0.00000  0.18252
      15     H     0.39661  0.39661  0.00000  0.20677
      16     H     0.40617  0.40617  0.00000  0.18766

   Total alpha = 24.00000, Total beta = 24.00000, Total charge = -0.00000


*** PSI4 exiting successfully. Buy a developer a beer!
