    -----------------------------------------------------------------------
          Psi4: An Open-Source Ab Initio Electronic Structure Package
                              Psi4 (no tag) Driver

                          Git: Rev {detached?}  

    J. M. Turney, A. C. Simmonett, R. M. Parrish, E. G. Hohenstein,
    F. A. Evangelista, J. T. Fermann, B. J. Mintz, L. A. Burns, J. J. Wilke,
    M. L. Abrams, N. J. Russ, M. L. Leininger, C. L. Janssen, E. T. Seidl,
    W. D. Allen, H. F. Schaefer, R. A. King, E. F. Valeev, C. D. Sherrill,
    and T. D. Crawford, WIREs Comput. Mol. Sci. 2, 556-565 (2012)
    (doi: 10.1002/wcms.93)

                         Additional Contributions by
    A. E. DePrince, M. Saitow, U. Bozkaya, A. Yu. Sokolov
    -----------------------------------------------------------------------


    Psi4 started on: Tue Jul  5 16:33:51 2016

    Process ID:  25224
    PSI4DATADIR: /export131/home/mjharvey/miniconda3/share
    Memory level set to 256.000 MB

  ==> Input File <==

--------------------------------------------------------------------------
set {
	reference rhf
	basis 6-31G*
}


set_num_threads( 1 )
memory 2 gb

molecule MOL {
0 1

H	 -2.798360	 -0.862255	 -0.071053
N	 -1.863561	 -0.715187	 0.256814
C	 -1.344686	 0.554728	 -0.219830
H	 -1.300452	 -1.461917	 -0.101532
C	 0.068734	 0.757699	 0.284333
H	 -1.338440	 0.646160	 -1.306846
H	 -1.968599	 1.352935	 0.170528
O	 0.025410	 0.869243	 1.678165
H	 0.696261	 -0.085192	 -0.004429
H	 0.487014	 1.661270	 -0.153657
C	 1.254342	 1.145436	 2.270630
H	 1.097099	 1.206889	 3.338897
H	 1.979869	 0.359865	 2.066981
H	 1.661710	 2.091027	 1.918893

	symmetry c1
}
set optking {
	frozen_dihedral = ("
		8 5 3 6,
		5 8 11 13,
		11 8 5 3
	")
}

ee = energy('scf')
oeprop('DIPOLE', 'QUADRUPOLE', 'MULLIKEN_CHARGES')
f=open( 'psi4out.xyz', 'w' )
f.write( "14  " )
f.write( str(ee) + "\n" )
f.write( MOL.save_string_xyz() )
f.close()
--------------------------------------------------------------------------

  Memory set to   2.000 GiB by Python script.

*** tstart() called on cx1-3-6-4.cx1.hpc.ic.ac.uk
*** at Tue Jul  5 16:33:51 2016


         ---------------------------------------------------------
                                   SCF
            by Justin Turney, Rob Parrish, and Andy Simmonett
                              RHF Reference
                        1 Threads,   2000 MiB Core
         ---------------------------------------------------------

  ==> Geometry <==

    Molecular point group: c1
    Full point group: C1

    Geometry (in Angstrom), charge = 0, multiplicity = 1:

       Center              X                  Y                   Z               Mass       
    ------------   -----------------  -----------------  -----------------  -----------------
           H         -2.432773730971    -1.372858574246    -0.928450982947     1.007825032070
           N         -1.497974730971    -1.225790574246    -0.600583982947    14.003074004780
           C         -0.979099730971     0.044124425754    -1.077227982947    12.000000000000
           H         -0.934865730971    -1.972520574246    -0.958929982947     1.007825032070
           C          0.434320269029     0.247095425754    -0.573064982947    12.000000000000
           H         -0.972853730971     0.135556425754    -2.164243982947     1.007825032070
           H         -1.603012730971     0.842331425754    -0.686869982947     1.007825032070
           O          0.390996269029     0.358639425754     0.820767017053    15.994914619560
           H          1.061847269029    -0.595795574246    -0.861826982947     1.007825032070
           H          0.852600269029     1.150666425754    -1.011054982947     1.007825032070
           C          1.619928269029     0.634832425754     1.413232017053    12.000000000000
           H          1.462685269029     0.696285425754     2.481499017053     1.007825032070
           H          2.345455269029    -0.150738574246     1.209583017053     1.007825032070
           H          2.027296269029     1.580423425754     1.061495017053     1.007825032070

  Running in c1 symmetry.

  Rotational constants: A =      0.45162  B =      0.08808  C =      0.08098 [cm^-1]
  Rotational constants: A =  13539.17425  B =   2640.71144  C =   2427.79488 [MHz]
  Nuclear repulsion =  194.075994254851963

  Charge       = 0
  Multiplicity = 1
  Electrons    = 42
  Nalpha       = 21
  Nbeta        = 21

  ==> Algorithm <==

  SCF Algorithm Type is DF.
  DIIS enabled.
  MOM disabled.
  Fractional occupation disabled.
  Guess Type is CORE.
  Energy threshold   = 1.00e-06
  Density threshold  = 1.00e-06
  Integral threshold = 0.00e+00

  ==> Primary Basis <==

  Basis Set: 6-31G*
    Number of shells: 48
    Number of basis function: 93
    Number of Cartesian functions: 93
    Spherical Harmonics?: false
    Max angular momentum: 2

  ==> Pre-Iterations <==

   -------------------------------------------------------
    Irrep   Nso     Nmo     Nalpha   Nbeta   Ndocc  Nsocc
   -------------------------------------------------------
     A         93      93       0       0       0       0
   -------------------------------------------------------
    Total      93      93      21      21      21       0
   -------------------------------------------------------

 OEINTS: Overlap, kinetic, potential, dipole, and quadrupole integrals
         stored in file 35.

  ==> Integral Setup <==

  ==> DFJK: Density-Fitted J/K Matrices <==

    J tasked:                  Yes
    K tasked:                  Yes
    wK tasked:                  No
    OpenMP threads:              1
    Integrals threads:           1
    Memory (MB):              1430
    Algorithm:                Core
    Integral Cache:           NONE
    Schwarz Cutoff:          1E-12
    Fitting Condition:       1E-12

   => Auxiliary Basis Set <=

  Basis Set: 
    Number of shells: 201
    Number of basis function: 630
    Number of Cartesian functions: 630
    Spherical Harmonics?: false
    Max angular momentum: 3

  Minimum eigenvalue in the overlap matrix is 4.4928243916E-03.
  Using Symmetric Orthogonalization.
  SCF Guess: Core (One-Electron) Hamiltonian.

  ==> Iterations <==

                           Total Energy        Delta E     RMS |[F,P]|

   @DF-RHF iter   1:  -201.68102943900240   -2.01681e+02   7.98612e-02 
   @DF-RHF iter   2:  -154.70646112738424    4.69746e+01   6.65713e-02 DIIS
   @DF-RHF iter   3:  -210.35753257571727   -5.56511e+01   6.07049e-02 DIIS
   @DF-RHF iter   4:  -238.87438703512854   -2.85169e+01   4.18758e-02 DIIS
   @DF-RHF iter   5:  -247.77922902115787   -8.90484e+00   8.67354e-03 DIIS
   @DF-RHF iter   6:  -248.07048326184966   -2.91254e-01   3.30482e-03 DIIS
   @DF-RHF iter   7:  -248.11511062173875   -4.46274e-02   8.69809e-04 DIIS
   @DF-RHF iter   8:  -248.11840016790288   -3.28955e-03   2.69821e-04 DIIS
   @DF-RHF iter   9:  -248.11878912118723   -3.88953e-04   8.90722e-05 DIIS
   @DF-RHF iter  10:  -248.11884040079318   -5.12796e-05   3.04182e-05 DIIS
   @DF-RHF iter  11:  -248.11884742791594   -7.02712e-06   7.77557e-06 DIIS
   @DF-RHF iter  12:  -248.11884784018096   -4.12265e-07   3.00243e-06 DIIS
   @DF-RHF iter  13:  -248.11884790404432   -6.38634e-08   6.34755e-07 DIIS

  ==> Post-Iterations <==

    Orbital Energies (a.u.)
    -----------------------

    Doubly Occupied:                                                      

       1A    -20.548397     2A    -15.530980     3A    -11.267530  
       4A    -11.260582     5A    -11.242145     6A     -1.373132  
       7A     -1.176617     8A     -0.998099     9A     -0.902159  
      10A     -0.818519    11A     -0.683074    12A     -0.663946  
      13A     -0.647864    14A     -0.614024    15A     -0.589173  
      16A     -0.560017    17A     -0.516099    18A     -0.500856  
      19A     -0.463058    20A     -0.414040    21A     -0.379117  

    Virtual:                                                              

      22A      0.227081    23A      0.253116    24A      0.287464  
      25A      0.291339    26A      0.317441    27A      0.322783  
      28A      0.330961    29A      0.340551    30A      0.350660  
      31A      0.364206    32A      0.427409    33A      0.444010  
      34A      0.458693    35A      0.724399    36A      0.768834  
      37A      0.777756    38A      0.796883    39A      0.807934  
      40A      0.843966    41A      0.878117    42A      0.937315  
      43A      0.995304    44A      1.009862    45A      1.062794  
      46A      1.097320    47A      1.113641    48A      1.154451  
      49A      1.156656    50A      1.165295    51A      1.196723  
      52A      1.211565    53A      1.227260    54A      1.249420  
      55A      1.258857    56A      1.289517    57A      1.307542  
      58A      1.379228    59A      1.434272    60A      1.585342  
      61A      1.676734    62A      1.703027    63A      1.751796  
      64A      1.776180    65A      1.790189    66A      1.948430  
      67A      2.022403    68A      2.053897    69A      2.220558  
      70A      2.240153    71A      2.272636    72A      2.377064  
      73A      2.402890    74A      2.438337    75A      2.479891  
      76A      2.507361    77A      2.522891    78A      2.595940  
      79A      2.638540    80A      2.702024    81A      2.728858  
      82A      2.837212    83A      2.878375    84A      2.904799  
      85A      3.020205    86A      3.091789    87A      3.199107  
      88A      3.346594    89A      4.215594    90A      4.370934  
      91A      4.660700    92A      4.697036    93A      4.892411  

    Final Occupation by Irrep:
              A 
    DOCC [    21 ]

  Energy converged.

  @DF-RHF Final Energy:  -248.11884790404432

   => Energetics <=

    Nuclear Repulsion Energy =            194.0759942548519632
    One-Electron Energy =                -722.0907030916145004
    Two-Electron Energy =                 279.8958609327183922
    DFT Exchange-Correlation Energy =       0.0000000000000000
    Empirical Dispersion Energy =           0.0000000000000000
    PCM Polarization Energy =               0.0000000000000000
    EFP Energy =                            0.0000000000000000
    Total Energy =                       -248.1188479040441734

    Alert: EFP and PCM quantities not currently incorporated into SCF psivars.

Properties will be evaluated at   0.000000,   0.000000,   0.000000 Bohr
  ==> Properties <==


Properties computed using the SCF density matrix

  Nuclear Dipole Moment: (a.u.)
     X:     1.6997      Y:     0.2990      Z:    -1.7369

  Electronic Dipole Moment: (a.u.)
     X:    -1.2980      Y:    -0.2626      Z:     0.8946

  Dipole Moment: (a.u.)
     X:     0.4016      Y:     0.0364      Z:    -0.8423     Total:     0.9338

  Dipole Moment: (Debye)
     X:     1.0208      Y:     0.0925      Z:    -2.1408     Total:     2.3736


  Saving occupied orbitals to File 180.

*** tstop() called on cx1-3-6-4.cx1.hpc.ic.ac.uk at Tue Jul  5 16:33:56 2016
Module time:
	user time   =       4.29 seconds =       0.07 minutes
	system time =       0.04 seconds =       0.00 minutes
	total time  =          5 seconds =       0.08 minutes
Total time:
	user time   =       4.29 seconds =       0.07 minutes
	system time =       0.04 seconds =       0.00 minutes
	total time  =          5 seconds =       0.08 minutes


Properties will be evaluated at   0.000000,   0.000000,   0.000000 Bohr

Properties computed using the  density matrix

  Nuclear Dipole Moment: (a.u.)
     X:     1.6997      Y:     0.2990      Z:    -1.7369

  Electronic Dipole Moment: (a.u.)
     X:    -1.2980      Y:    -0.2626      Z:     0.8946

  Dipole Moment: (a.u.)
     X:     0.4016      Y:     0.0364      Z:    -0.8423     Total:     0.9338

  Dipole Moment: (Debye)
     X:     1.0208      Y:     0.0925      Z:    -2.1408     Total:     2.3736

  Quadrupole Moment: (Debye Ang)
    XX:   -28.7511     YY:   -30.8536     ZZ:   -30.6841
    XY:     0.7679     XZ:     4.0933     YZ:     2.5887

  Traceless Quadrupole Moment: (Debye Ang)
    XX:     1.3452     YY:    -0.7574     ZZ:    -0.5878
    XY:     0.7679     XZ:     4.0933     YZ:     2.5887

  Mulliken Charges: (a.u.)
   Center  Symbol    Alpha    Beta     Spin     Total
       1     H     0.33224  0.33224  0.00000  0.33551
       2     N     3.91143  3.91143  0.00000 -0.82286
       3     C     3.07064  3.07064  0.00000 -0.14129
       4     H     0.33698  0.33698  0.00000  0.32604
       5     C     2.98875  2.98875  0.00000  0.02250
       6     H     0.43433  0.43433  0.00000  0.13135
       7     H     0.41072  0.41072  0.00000  0.17855
       8     O     4.29624  4.29624  0.00000 -0.59247
       9     H     0.43477  0.43477  0.00000  0.13045
      10     H     0.43015  0.43015  0.00000  0.13969
      11     C     3.07817  3.07817  0.00000 -0.15635
      12     H     0.41135  0.41135  0.00000  0.17730
      13     H     0.43169  0.43169  0.00000  0.13662
      14     H     0.43252  0.43252  0.00000  0.13496

   Total alpha = 21.00000, Total beta = 21.00000, Total charge =  0.00000


*** PSI4 exiting successfully. Buy a developer a beer!
