    -----------------------------------------------------------------------
          Psi4: An Open-Source Ab Initio Electronic Structure Package
                              Psi4 (no tag) Driver

                          Git: Rev {detached?}  

    J. M. Turney, A. C. Simmonett, R. M. Parrish, E. G. Hohenstein,
    F. A. Evangelista, J. T. Fermann, B. J. Mintz, L. A. Burns, J. J. Wilke,
    M. L. Abrams, N. J. Russ, M. L. Leininger, C. L. Janssen, E. T. Seidl,
    W. D. Allen, H. F. Schaefer, R. A. King, E. F. Valeev, C. D. Sherrill,
    and T. D. Crawford, WIREs Comput. Mol. Sci. 2, 556-565 (2012)
    (doi: 10.1002/wcms.93)

                         Additional Contributions by
    A. E. DePrince, M. Saitow, U. Bozkaya, A. Yu. Sokolov
    -----------------------------------------------------------------------


    Psi4 started on: Tue Jul  5 17:52:36 2016

    Process ID:   2977
    PSI4DATADIR: /export131/home/mjharvey/miniconda3/share
    Memory level set to 256.000 MB

  ==> Input File <==

--------------------------------------------------------------------------
set {
	reference rhf
	basis 6-31G*
}


set_num_threads( 1 )
memory 2 gb

molecule MOL {
0 1

O	 -0.547530	 -1.875000	 1.420542
C	 -1.514987	 -1.440192	 0.882411
C	 -2.912351	 -1.948455	 1.127999
O	 -1.481751	 -0.454642	 0.000584
H	 -3.140554	 -1.843451	 2.181925
H	 -3.644235	 -1.415791	 0.538886
H	 -2.945321	 -3.004760	 0.889228
C	 -0.334255	 0.388708	 0.000906
C	 0.891947	 -0.504646	 0.000751
H	 -0.365390	 1.025305	 -0.873475
H	 -0.365484	 1.024911	 0.875569
C	 0.838286	 -1.556101	 -1.109219
H	 0.972990	 -0.989855	 0.969484
H	 1.777328	 0.114301	 -0.115286
C	 -0.165550	 -2.674382	 -0.822711
H	 0.580561	 -1.076907	 -2.052106
H	 1.827151	 -1.989778	 -1.247612
C	 -1.569591	 -2.151369	 -0.522723
H	 0.186978	 -3.266682	 0.018705
H	 -0.205447	 -3.348458	 -1.675412
H	 -1.568128	 -1.500106	 0.346683
H	 -2.257858	 -2.966803	 -0.323744
H	 -1.963632	 -1.582803	 -1.360264

	symmetry c1
}
set optking {
	frozen_dihedral = ("
		13 9 8 10,
		2 4 8 10,
		16 12 9 13,
		19 15 12 16
	")
}

ee = energy('scf')
oeprop('DIPOLE', 'QUADRUPOLE', 'MULLIKEN_CHARGES')
f=open( 'psi4out.xyz', 'w' )
f.write( "23  " )
f.write( str(ee) + "\n" )
f.write( MOL.save_string_xyz() )
f.close()
--------------------------------------------------------------------------

  Memory set to   2.000 GiB by Python script.

*** tstart() called on cx1-3-4-2.cx1.hpc.ic.ac.uk
*** at Tue Jul  5 17:52:36 2016


         ---------------------------------------------------------
                                   SCF
            by Justin Turney, Rob Parrish, and Andy Simmonett
                              RHF Reference
                        1 Threads,   2000 MiB Core
         ---------------------------------------------------------

  ==> Geometry <==

    Molecular point group: c1
    Full point group: C1

    Geometry (in Angstrom), charge = 0, multiplicity = 1:

       Center              X                  Y                   Z               Mass       
    ------------   -----------------  -----------------  -----------------  -----------------
           O          0.227678719888    -0.515397284457     1.300802471197    15.994914619560
           C         -0.739778280112    -0.080589284457     0.762671471197    12.000000000000
           C         -2.137142280112    -0.588852284457     1.008259471197    12.000000000000
           O         -0.706542280112     0.904960715543    -0.119155528803    15.994914619560
           H         -2.365345280112    -0.483848284457     2.062185471197     1.007825032070
           H         -2.869026280112    -0.056188284457     0.419146471197     1.007825032070
           H         -2.170112280112    -1.645157284457     0.769488471197     1.007825032070
           C          0.440953719888     1.748310715543    -0.118833528803    12.000000000000
           C          1.667155719888     0.854956715543    -0.118988528803    12.000000000000
           H          0.409818719888     2.384907715543    -0.993214528803     1.007825032070
           H          0.409724719888     2.384513715543     0.755829471197     1.007825032070
           C          1.613494719888    -0.196498284457    -1.228958528803    12.000000000000
           H          1.748198719888     0.369747715543     0.849744471197     1.007825032070
           H          2.552536719888     1.473903715543    -0.235025528803     1.007825032070
           C          0.609658719888    -1.314779284457    -0.942450528803    12.000000000000
           H          1.355769719888     0.282695715543    -2.171845528803     1.007825032070
           H          2.602359719888    -0.630175284457    -1.367351528803     1.007825032070
           C         -0.794382280112    -0.791766284457    -0.642462528803    12.000000000000
           H          0.962186719888    -1.907079284457    -0.101034528803     1.007825032070
           H          0.569761719888    -1.988855284457    -1.795151528803     1.007825032070
           H         -0.792919280112    -0.140503284457     0.226943471197     1.007825032070
           H         -1.482649280112    -1.607200284457    -0.443483528803     1.007825032070
           H         -1.188423280112    -0.223200284457    -1.480003528803     1.007825032070

  Running in c1 symmetry.

  Rotational constants: A =      0.09319  B =      0.05718  C =      0.04740 [cm^-1]
  Rotational constants: A =   2793.88870  B =   1714.34291  C =   1420.98657 [MHz]
  Nuclear repulsion =  561.572588362778333

  Charge       = 0
  Multiplicity = 1
  Electrons    = 72
  Nalpha       = 36
  Nbeta        = 36

  ==> Algorithm <==

  SCF Algorithm Type is DF.
  DIIS enabled.
  MOM disabled.
  Fractional occupation disabled.
  Guess Type is CORE.
  Energy threshold   = 1.00e-06
  Density threshold  = 1.00e-06
  Integral threshold = 0.00e+00

  ==> Primary Basis <==

  Basis Set: 6-31G*
    Number of shells: 82
    Number of basis function: 163
    Number of Cartesian functions: 163
    Spherical Harmonics?: false
    Max angular momentum: 2

  ==> Pre-Iterations <==

   -------------------------------------------------------
    Irrep   Nso     Nmo     Nalpha   Nbeta   Ndocc  Nsocc
   -------------------------------------------------------
     A        163     163       0       0       0       0
   -------------------------------------------------------
    Total     163     163      36      36      36       0
   -------------------------------------------------------

 OEINTS: Overlap, kinetic, potential, dipole, and quadrupole integrals
         stored in file 35.

  ==> Integral Setup <==

  ==> DFJK: Density-Fitted J/K Matrices <==

    J tasked:                  Yes
    K tasked:                  Yes
    wK tasked:                  No
    OpenMP threads:              1
    Integrals threads:           1
    Memory (MB):              1430
    Algorithm:                Core
    Integral Cache:           NONE
    Schwarz Cutoff:          1E-12
    Fitting Condition:       1E-12

   => Auxiliary Basis Set <=

  Basis Set: 
    Number of shells: 342
    Number of basis function: 1079
    Number of Cartesian functions: 1079
    Spherical Harmonics?: false
    Max angular momentum: 3

  Minimum eigenvalue in the overlap matrix is 1.2087016392E-04.
  Using Symmetric Orthogonalization.
  SCF Guess: Core (One-Electron) Hamiltonian.

  ==> Iterations <==

                           Total Energy        Delta E     RMS |[F,P]|

   @DF-RHF iter   1:  -267.25022825165422   -2.67250e+02   8.38954e-02 
   @DF-RHF iter   2:  -207.93474275274616    5.93155e+01   6.24911e-02 DIIS
   @DF-RHF iter   3:  -317.02570539776832   -1.09091e+02   6.00083e-02 DIIS
   @DF-RHF iter   4:  -391.79597629944919   -7.47703e+01   3.75529e-02 DIIS
   @DF-RHF iter   5:  -397.84332879054193   -6.04735e+00   3.32977e-02 DIIS
   @DF-RHF iter   6:  -421.18263775249306   -2.33393e+01   5.98896e-03 DIIS
   @DF-RHF iter   7:  -421.60322786289794   -4.20590e-01   2.17233e-03 DIIS
   @DF-RHF iter   8:  -421.66003518102423   -5.68073e-02   4.52825e-04 DIIS
   @DF-RHF iter   9:  -421.66359912345945   -3.56394e-03   1.69889e-04 DIIS
   @DF-RHF iter  10:  -421.66417861325669   -5.79490e-04   4.72321e-05 DIIS
   @DF-RHF iter  11:  -421.66424355421088   -6.49410e-05   1.52943e-05 DIIS
   @DF-RHF iter  12:  -421.66425100135552   -7.44714e-06   6.70458e-06 DIIS
   @DF-RHF iter  13:  -421.66425213380933   -1.13245e-06   2.14715e-06 DIIS
   @DF-RHF iter  14:  -421.66425229233505   -1.58526e-07   7.56208e-07 DIIS

  ==> Post-Iterations <==

    Orbital Energies (a.u.)
    -----------------------

    Doubly Occupied:                                                      

       1A    -20.576125     2A    -20.438052     3A    -11.390545  
       4A    -11.303010     5A    -11.277592     6A    -11.226779  
       7A    -11.217634     8A    -11.216072     9A    -11.193293  
      10A     -1.640459    11A     -1.335408    12A     -1.215941  
      13A     -1.087287    14A     -0.998759    15A     -0.961918  
      16A     -0.929361    17A     -0.822997    18A     -0.784508  
      19A     -0.723822    20A     -0.709314    21A     -0.693649  
      22A     -0.660123    23A     -0.611124    24A     -0.593584  
      25A     -0.592193    26A     -0.568233    27A     -0.561013  
      28A     -0.545775    29A     -0.520870    30A     -0.487470  
      31A     -0.468911    32A     -0.462040    33A     -0.452603  
      34A     -0.430325    35A     -0.367517    36A     -0.339411  

    Virtual:                                                              

      37A      0.217432    38A      0.238129    39A      0.246720  
      40A      0.271822    41A      0.285404    42A      0.297153  
      43A      0.303976    44A      0.311627    45A      0.319149  
      46A      0.328242    47A      0.334102    48A      0.344814  
      49A      0.356613    50A      0.381126    51A      0.393404  
      52A      0.407505    53A      0.430130    54A      0.432078  
      55A      0.456069    56A      0.469273    57A      0.500979  
      58A      0.588383    59A      0.638807    60A      0.708141  
      61A      0.717860    62A      0.725394    63A      0.746991  
      64A      0.757323    65A      0.768958    66A      0.797472  
      67A      0.850738    68A      0.883873    69A      0.893874  
      70A      0.905770    71A      0.924870    72A      0.941153  
      73A      0.983987    74A      0.998230    75A      1.003955  
      76A      1.025691    77A      1.075867    78A      1.080801  
      79A      1.106684    80A      1.118260    81A      1.135521  
      82A      1.151748    83A      1.155685    84A      1.173819  
      85A      1.185245    86A      1.190598    87A      1.201227  
      88A      1.219226    89A      1.233166    90A      1.237460  
      91A      1.247732    92A      1.270520    93A      1.278586  
      94A      1.313447    95A      1.335383    96A      1.395487  
      97A      1.427608    98A      1.485493    99A      1.542383  
     100A      1.554502   101A      1.600491   102A      1.668000  
     103A      1.716215   104A      1.744831   105A      1.778508  
     106A      1.796629   107A      1.815468   108A      1.874399  
     109A      1.905347   110A      1.960116   111A      2.017711  
     112A      2.036531   113A      2.053986   114A      2.096316  
     115A      2.141584   116A      2.161290   117A      2.206563  
     118A      2.232122   119A      2.240211   120A      2.261382  
     121A      2.285861   122A      2.327418   123A      2.360982  
     124A      2.372756   125A      2.391529   126A      2.409693  
     127A      2.418577   128A      2.464538   129A      2.496265  
     130A      2.567297   131A      2.579941   132A      2.620481  
     133A      2.630075   134A      2.664071   135A      2.682254  
     136A      2.710701   137A      2.728046   138A      2.749403  
     139A      2.791410   140A      2.807557   141A      2.833473  
     142A      2.853701   143A      2.944300   144A      2.990433  
     145A      3.030067   146A      3.044544   147A      3.078245  
     148A      3.121643   149A      3.154471   150A      3.326054  
     151A      3.396567   152A      3.482661   153A      3.573416  
     154A      4.563708   155A      4.678705   156A      4.727185  
     157A      4.798552   158A      4.909475   159A      4.954179  
     160A      5.013299   161A      5.082910   162A      5.119596  
     163A      6.063171  

    Final Occupation by Irrep:
              A 
    DOCC [    36 ]

  Energy converged.

  @DF-RHF Final Energy:  -421.66425229233505

   => Energetics <=

    Nuclear Repulsion Energy =            561.5725883627783332
    One-Electron Energy =               -1687.6663697461949596
    Two-Electron Energy =                 704.4295290910825997
    DFT Exchange-Correlation Energy =       0.0000000000000000
    Empirical Dispersion Energy =           0.0000000000000000
    PCM Polarization Energy =               0.0000000000000000
    EFP Energy =                            0.0000000000000000
    Total Energy =                       -421.6642522923340266

    Alert: EFP and PCM quantities not currently incorporated into SCF psivars.

Properties will be evaluated at   0.000000,   0.000000,   0.000000 Bohr
  ==> Properties <==


Properties computed using the SCF density matrix

  Nuclear Dipole Moment: (a.u.)
     X:    -0.2443      Y:    -1.6729      Z:    -3.2790

  Electronic Dipole Moment: (a.u.)
     X:    -0.3111      Y:     1.8026      Z:     2.0539

  Dipole Moment: (a.u.)
     X:    -0.5554      Y:     0.1297      Z:    -1.2251     Total:     1.3514

  Dipole Moment: (Debye)
     X:    -1.4116      Y:     0.3297      Z:    -3.1140     Total:     3.4348


  Saving occupied orbitals to File 180.

*** tstop() called on cx1-3-4-2.cx1.hpc.ic.ac.uk at Tue Jul  5 17:53:03 2016
Module time:
	user time   =      25.88 seconds =       0.43 minutes
	system time =       0.24 seconds =       0.00 minutes
	total time  =         27 seconds =       0.45 minutes
Total time:
	user time   =      25.88 seconds =       0.43 minutes
	system time =       0.24 seconds =       0.00 minutes
	total time  =         27 seconds =       0.45 minutes


Properties will be evaluated at   0.000000,   0.000000,   0.000000 Bohr

Properties computed using the  density matrix

  Nuclear Dipole Moment: (a.u.)
     X:    -0.2443      Y:    -1.6729      Z:    -3.2790

  Electronic Dipole Moment: (a.u.)
     X:    -0.3111      Y:     1.8026      Z:     2.0539

  Dipole Moment: (a.u.)
     X:    -0.5554      Y:     0.1297      Z:    -1.2251     Total:     1.3514

  Dipole Moment: (Debye)
     X:    -1.4116      Y:     0.3297      Z:    -3.1140     Total:     3.4348

  Quadrupole Moment: (Debye Ang)
    XX:   -54.6011     YY:   -53.3994     ZZ:   -59.9650
    XY:     2.6896     XZ:    -1.0525     YZ:     2.7254

  Traceless Quadrupole Moment: (Debye Ang)
    XX:     1.3874     YY:     2.5891     ZZ:    -3.9765
    XY:     2.6896     XZ:    -1.0525     YZ:     2.7254

  Mulliken Charges: (a.u.)
   Center  Symbol    Alpha    Beta     Spin     Total
       1     O     4.39400  4.39400  0.00000 -0.78800
       2     C     2.93101  2.93101  0.00000  0.13799
       3     C     3.31271  3.31271  0.00000 -0.62543
       4     O     4.33463  4.33463  0.00000 -0.66926
       5     H     0.40759  0.40759  0.00000  0.18481
       6     H     0.40531  0.40531  0.00000  0.18938
       7     H     0.40137  0.40137  0.00000  0.19726
       8     C     3.00978  3.00978  0.00000 -0.01957
       9     C     3.19412  3.19412  0.00000 -0.38824
      10     H     0.41028  0.41028  0.00000  0.17945
      11     H     0.41132  0.41132  0.00000  0.17735
      12     C     3.15632  3.15632  0.00000 -0.31264
      13     H     0.36002  0.36002  0.00000  0.27995
      14     H     0.42759  0.42759  0.00000  0.14482
      15     C     3.16562  3.16562  0.00000 -0.33124
      16     H     0.42953  0.42953  0.00000  0.14094
      17     H     0.41376  0.41376  0.00000  0.17248
      18     C     3.19408  3.19408  0.00000 -0.38816
      19     H     0.38180  0.38180  0.00000  0.23640
      20     H     0.41406  0.41406  0.00000  0.17187
      21     H     0.06378  0.06378  0.00000  0.87245
      22     H     0.40483  0.40483  0.00000  0.19034
      23     H     0.37648  0.37648  0.00000  0.24705

   Total alpha = 36.00000, Total beta = 36.00000, Total charge =  0.00000


*** PSI4 exiting successfully. Buy a developer a beer!
