    -----------------------------------------------------------------------
          Psi4: An Open-Source Ab Initio Electronic Structure Package
                              Psi4 (no tag) Driver

                          Git: Rev {detached?}  

    J. M. Turney, A. C. Simmonett, R. M. Parrish, E. G. Hohenstein,
    F. A. Evangelista, J. T. Fermann, B. J. Mintz, L. A. Burns, J. J. Wilke,
    M. L. Abrams, N. J. Russ, M. L. Leininger, C. L. Janssen, E. T. Seidl,
    W. D. Allen, H. F. Schaefer, R. A. King, E. F. Valeev, C. D. Sherrill,
    and T. D. Crawford, WIREs Comput. Mol. Sci. 2, 556-565 (2012)
    (doi: 10.1002/wcms.93)

                         Additional Contributions by
    A. E. DePrince, M. Saitow, U. Bozkaya, A. Yu. Sokolov
    -----------------------------------------------------------------------


    Psi4 started on: Tue Jul  5 17:42:44 2016

    Process ID:   1196
    PSI4DATADIR: /export131/home/mjharvey/miniconda3/share
    Memory level set to 256.000 MB

  ==> Input File <==

--------------------------------------------------------------------------
set {
	reference rhf
	basis 6-31G*
}


set_num_threads( 1 )
memory 2 gb

molecule MOL {
0 1

H	 -3.457960	 0.166880	 1.449720
O	 -3.367910	 -0.300316	 2.267454
C	 -3.043259	 -1.643282	 2.012310
C	 -1.609705	 -1.833855	 1.529264
H	 -3.184960	 -2.163733	 2.950780
H	 -3.740919	 -2.074362	 1.295219
C	 -1.499629	 -2.301077	 0.075835
H	 -1.076710	 -0.894595	 1.652044
H	 -1.126325	 -2.560406	 2.180289
C	 -2.012251	 -3.729752	 -0.126461
H	 -0.462380	 -2.239441	 -0.241467
H	 -2.064671	 -1.624698	 -0.565709
C	 -3.365797	 -4.027087	 0.529165
H	 -2.074929	 -3.939991	 -1.192631
H	 -1.275513	 -4.421974	 0.275714
C	 -3.358668	 -4.006516	 2.060179
H	 -4.085494	 -3.291487	 0.175970
H	 -3.728131	 -4.993916	 0.183055
C	 -4.750140	 -4.203637	 2.665477
H	 -2.949284	 -3.057878	 2.404565
H	 -2.697008	 -4.780379	 2.441814
C	 -4.744903	 -4.189933	 4.193694
H	 -5.415233	 -3.424063	 2.300232
H	 -5.164795	 -5.146475	 2.314758
H	 -4.365677	 -3.246401	 4.576001
H	 -5.745042	 -4.329899	 4.592150
H	 -4.117014	 -4.982490	 4.591153

	symmetry c1
}
set optking {
	frozen_dihedral = ("
		14 10 7 4,
		14 10 13 16,
		10 7 4 8,
		10 13 16 20,
		20 16 19 22,
		4 3 2 1
	")
}

ee = energy('scf')
oeprop('DIPOLE', 'QUADRUPOLE', 'MULLIKEN_CHARGES')
f=open( 'psi4out.xyz', 'w' )
f.write( "27  " )
f.write( str(ee) + "\n" )
f.write( MOL.save_string_xyz() )
f.close()
--------------------------------------------------------------------------

  Memory set to   2.000 GiB by Python script.

*** tstart() called on cx1-3-4-2.cx1.hpc.ic.ac.uk
*** at Tue Jul  5 17:42:44 2016


         ---------------------------------------------------------
                                   SCF
            by Justin Turney, Rob Parrish, and Andy Simmonett
                              RHF Reference
                        1 Threads,   2000 MiB Core
         ---------------------------------------------------------

  ==> Geometry <==

    Molecular point group: c1
    Full point group: C1

    Geometry (in Angstrom), charge = 0, multiplicity = 1:

       Center              X                  Y                   Z               Mass       
    ------------   -----------------  -----------------  -----------------  -----------------
           H         -0.356140670338     3.036779543583    -0.265185382996     1.007825032070
           O         -0.266090670338     2.569583543583     0.552548617004    15.994914619560
           C          0.058560329662     1.226617543583     0.297404617004    12.000000000000
           C          1.492114329662     1.036044543583    -0.185641382996    12.000000000000
           H         -0.083140670338     0.706166543583     1.235874617004     1.007825032070
           H         -0.639099670338     0.795537543583    -0.419686382996     1.007825032070
           C          1.602190329662     0.568822543583    -1.639070382996    12.000000000000
           H          2.025109329662     1.975304543583    -0.062861382996     1.007825032070
           H          1.975494329662     0.309493543583     0.465383617004     1.007825032070
           C          1.089568329662    -0.859852456417    -1.841366382996    12.000000000000
           H          2.639439329662     0.630458543583    -1.956372382996     1.007825032070
           H          1.037148329662     1.245201543583    -2.280614382996     1.007825032070
           C         -0.263977670338    -1.157187456417    -1.185740382996    12.000000000000
           H          1.026890329662    -1.070091456417    -2.907536382996     1.007825032070
           H          1.826306329662    -1.552074456417    -1.439191382996     1.007825032070
           C         -0.256848670338    -1.136616456417     0.345273617004    12.000000000000
           H         -0.983674670338    -0.421587456417    -1.538935382996     1.007825032070
           H         -0.626311670338    -2.124016456417    -1.531850382996     1.007825032070
           C         -1.648320670338    -1.333737456417     0.950571617004    12.000000000000
           H          0.152535329662    -0.187978456417     0.689659617004     1.007825032070
           H          0.404811329662    -1.910479456417     0.726908617004     1.007825032070
           C         -1.643083670338    -1.320033456417     2.478788617004    12.000000000000
           H         -2.313413670338    -0.554163456417     0.585326617004     1.007825032070
           H         -2.062975670338    -2.276575456417     0.599852617004     1.007825032070
           H         -1.263857670338    -0.376501456417     2.861095617004     1.007825032070
           H         -2.643222670338    -1.459999456417     2.877244617004     1.007825032070
           H         -1.015194670338    -2.112590456417     2.876247617004     1.007825032070

  Running in c1 symmetry.

  Rotational constants: A =      0.05998  B =      0.03821  C =      0.02636 [cm^-1]
  Rotational constants: A =   1798.27241  B =   1145.50044  C =    790.36370 [MHz]
  Nuclear repulsion =  510.018983794297924

  Charge       = 0
  Multiplicity = 1
  Electrons    = 74
  Nalpha       = 37
  Nbeta        = 37

  ==> Algorithm <==

  SCF Algorithm Type is DF.
  DIIS enabled.
  MOM disabled.
  Fractional occupation disabled.
  Guess Type is CORE.
  Energy threshold   = 1.00e-06
  Density threshold  = 1.00e-06
  Integral threshold = 0.00e+00

  ==> Primary Basis <==

  Basis Set: 6-31G*
    Number of shells: 90
    Number of basis function: 171
    Number of Cartesian functions: 171
    Spherical Harmonics?: false
    Max angular momentum: 2

  ==> Pre-Iterations <==

   -------------------------------------------------------
    Irrep   Nso     Nmo     Nalpha   Nbeta   Ndocc  Nsocc
   -------------------------------------------------------
     A        171     171       0       0       0       0
   -------------------------------------------------------
    Total     171     171      37      37      37       0
   -------------------------------------------------------

 OEINTS: Overlap, kinetic, potential, dipole, and quadrupole integrals
         stored in file 35.

  ==> Integral Setup <==

  ==> DFJK: Density-Fitted J/K Matrices <==

    J tasked:                  Yes
    K tasked:                  Yes
    wK tasked:                  No
    OpenMP threads:              1
    Integrals threads:           1
    Memory (MB):              1430
    Algorithm:                Core
    Integral Cache:           NONE
    Schwarz Cutoff:          1E-12
    Fitting Condition:       1E-12

   => Auxiliary Basis Set <=

  Basis Set: 
    Number of shells: 378
    Number of basis function: 1179
    Number of Cartesian functions: 1179
    Spherical Harmonics?: false
    Max angular momentum: 3

  Minimum eigenvalue in the overlap matrix is 2.5992226161E-03.
  Using Symmetric Orthogonalization.
  SCF Guess: Core (One-Electron) Hamiltonian.

  ==> Iterations <==

                           Total Energy        Delta E     RMS |[F,P]|

   @DF-RHF iter   1:  -285.51752011864869   -2.85518e+02   6.07241e-02 
   @DF-RHF iter   2:   -13.29752049186732    2.72220e+02   6.58670e-02 DIIS
   @DF-RHF iter   3:  -286.49415924585458   -2.73197e+02   5.05575e-02 DIIS
   @DF-RHF iter   4:  -331.02171861507190   -4.45276e+01   4.52273e-02 DIIS
   @DF-RHF iter   5:  -378.87400483134240   -4.78523e+01   1.83483e-02 DIIS
   @DF-RHF iter   6:  -387.18112917725364   -8.30712e+00   7.72348e-03 DIIS
   @DF-RHF iter   7:  -388.10184087601738   -9.20712e-01   1.63446e-03 DIIS
   @DF-RHF iter   8:  -388.14203208261426   -4.01912e-02   6.43490e-04 DIIS
   @DF-RHF iter   9:  -388.14977190174864   -7.73982e-03   1.86266e-04 DIIS
   @DF-RHF iter  10:  -388.15051536309534   -7.43461e-04   5.71796e-05 DIIS
   @DF-RHF iter  11:  -388.15058483806115   -6.94750e-05   1.50205e-05 DIIS
   @DF-RHF iter  12:  -388.15059040402150   -5.56596e-06   5.38660e-06 DIIS
   @DF-RHF iter  13:  -388.15059106243177   -6.58410e-07   1.09513e-06 DIIS
   @DF-RHF iter  14:  -388.15059109749643   -3.50647e-08   2.44084e-07 DIIS

  ==> Post-Iterations <==

    Orbital Energies (a.u.)
    -----------------------

    Doubly Occupied:                                                      

       1A    -20.545213     2A    -11.264857     3A    -11.221610  
       4A    -11.217468     5A    -11.217045     6A    -11.214386  
       7A    -11.213133     8A    -11.208213     9A    -11.188201  
      10A     -1.356417    11A     -1.121712    12A     -1.054866  
      13A     -1.015833    14A     -0.980597    15A     -0.880488  
      16A     -0.844825    17A     -0.799659    18A     -0.780487  
      19A     -0.711732    20A     -0.672319    21A     -0.630694  
      22A     -0.611212    23A     -0.606607    24A     -0.588107  
      25A     -0.569500    26A     -0.560005    27A     -0.545209  
      28A     -0.533998    29A     -0.509086    30A     -0.493817  
      31A     -0.483050    32A     -0.476882    33A     -0.458048  
      34A     -0.457790    35A     -0.434123    36A     -0.426452  
      37A     -0.401540  

    Virtual:                                                              

      38A      0.210619    39A      0.233530    40A      0.242284  
      41A      0.251224    42A      0.277547    43A      0.281768  
      44A      0.296450    45A      0.311115    46A      0.314954  
      47A      0.318671    48A      0.323312    49A      0.330954  
      50A      0.347226    51A      0.353475    52A      0.357725  
      53A      0.376253    54A      0.384190    55A      0.396223  
      56A      0.415101    57A      0.426246    58A      0.460166  
      59A      0.472319    60A      0.474417    61A      0.483435  
      62A      0.519912    63A      0.571599    64A      0.693240  
      65A      0.703883    66A      0.728085    67A      0.739169  
      68A      0.751020    69A      0.764329    70A      0.787977  
      71A      0.836592    72A      0.859660    73A      0.883128  
      74A      0.899328    75A      0.913272    76A      0.922145  
      77A      0.960168    78A      0.970991    79A      0.977261  
      80A      1.002967    81A      1.022097    82A      1.040164  
      83A      1.067508    84A      1.087175    85A      1.118531  
      86A      1.136811    87A      1.143935    88A      1.150347  
      89A      1.161274    90A      1.168709    91A      1.178392  
      92A      1.183553    93A      1.197766    94A      1.203688  
      95A      1.208875    96A      1.224803    97A      1.227725  
      98A      1.234515    99A      1.248761   100A      1.258646  
     101A      1.270282   102A      1.274656   103A      1.293250  
     104A      1.329117   105A      1.344311   106A      1.375008  
     107A      1.412406   108A      1.445309   109A      1.513169  
     110A      1.524961   111A      1.597066   112A      1.679026  
     113A      1.703926   114A      1.721663   115A      1.748948  
     116A      1.787284   117A      1.854014   118A      1.891836  
     119A      1.934183   120A      1.969267   121A      1.988910  
     122A      2.033420   123A      2.070153   124A      2.107999  
     125A      2.130433   126A      2.141652   127A      2.191785  
     128A      2.237452   129A      2.242083   130A      2.257947  
     131A      2.283346   132A      2.289760   133A      2.294915  
     134A      2.336898   135A      2.352849   136A      2.368346  
     137A      2.383573   138A      2.418264   139A      2.484936  
     140A      2.502220   141A      2.522191   142A      2.598129  
     143A      2.626185   144A      2.646402   145A      2.656904  
     146A      2.676710   147A      2.692808   148A      2.740232  
     149A      2.766445   150A      2.774113   151A      2.812266  
     152A      2.839084   153A      2.875346   154A      2.898591  
     155A      2.956512   156A      2.964506   157A      3.018016  
     158A      3.023286   159A      3.100528   160A      3.125167  
     161A      3.176003   162A      3.358378   163A      4.366237  
     164A      4.565267   165A      4.620990   166A      4.740263  
     167A      4.794288   168A      4.855622   169A      4.977859  
     170A      5.011325   171A      5.069268  

    Final Occupation by Irrep:
              A 
    DOCC [    37 ]

  Energy converged.

  @DF-RHF Final Energy:  -388.15059109749643

   => Energetics <=

    Nuclear Repulsion Energy =            510.0189837942979239
    One-Electron Energy =               -1537.7487825330856595
    Two-Electron Energy =                 639.5792076412936922
    DFT Exchange-Correlation Energy =       0.0000000000000000
    Empirical Dispersion Energy =           0.0000000000000000
    PCM Polarization Energy =               0.0000000000000000
    EFP Energy =                            0.0000000000000000
    Total Energy =                       -388.1505910974941571

    Alert: EFP and PCM quantities not currently incorporated into SCF psivars.

Properties will be evaluated at   0.000000,   0.000000,   0.000000 Bohr
  ==> Properties <==


Properties computed using the SCF density matrix

  Nuclear Dipole Moment: (a.u.)
     X:    -0.8443      Y:    -5.0004      Z:     0.4858

  Electronic Dipole Moment: (a.u.)
     X:     1.0122      Y:     4.7761      Z:    -1.1281

  Dipole Moment: (a.u.)
     X:     0.1678      Y:    -0.2243      Z:    -0.6423     Total:     0.7007

  Dipole Moment: (Debye)
     X:     0.4266      Y:    -0.5700      Z:    -1.6325     Total:     1.7810


  Saving occupied orbitals to File 180.

*** tstop() called on cx1-3-4-2.cx1.hpc.ic.ac.uk at Tue Jul  5 17:43:15 2016
Module time:
	user time   =      29.46 seconds =       0.49 minutes
	system time =       0.33 seconds =       0.01 minutes
	total time  =         31 seconds =       0.52 minutes
Total time:
	user time   =      29.46 seconds =       0.49 minutes
	system time =       0.33 seconds =       0.01 minutes
	total time  =         31 seconds =       0.52 minutes


Properties will be evaluated at   0.000000,   0.000000,   0.000000 Bohr

Properties computed using the  density matrix

  Nuclear Dipole Moment: (a.u.)
     X:    -0.8443      Y:    -5.0004      Z:     0.4858

  Electronic Dipole Moment: (a.u.)
     X:     1.0122      Y:     4.7761      Z:    -1.1281

  Dipole Moment: (a.u.)
     X:     0.1678      Y:    -0.2243      Z:    -0.6423     Total:     0.7007

  Dipole Moment: (Debye)
     X:     0.4266      Y:    -0.5700      Z:    -1.6325     Total:     1.7810

  Quadrupole Moment: (Debye Ang)
    XX:   -60.2331     YY:   -62.7596     ZZ:   -61.1238
    XY:     0.4612     XZ:     0.8686     YZ:    -5.7672

  Traceless Quadrupole Moment: (Debye Ang)
    XX:     1.1391     YY:    -1.3875     ZZ:     0.2484
    XY:     0.4612     XZ:     0.8686     YZ:    -5.7672

  Mulliken Charges: (a.u.)
   Center  Symbol    Alpha    Beta     Spin     Total
       1     H     0.28707  0.28707  0.00000  0.42586
       2     O     4.38564  4.38564  0.00000 -0.77128
       3     C     3.00906  3.00906  0.00000 -0.01812
       4     C     3.18624  3.18624  0.00000 -0.37247
       5     H     0.38964  0.38964  0.00000  0.22072
       6     H     0.41461  0.41461  0.00000  0.17079
       7     C     3.15683  3.15683  0.00000 -0.31365
       8     H     0.40422  0.40422  0.00000  0.19156
       9     H     0.41099  0.41099  0.00000  0.17803
      10     C     3.14940  3.14940  0.00000 -0.29881
      11     H     0.41586  0.41586  0.00000  0.16827
      12     H     0.42743  0.42743  0.00000  0.14515
      13     C     3.16807  3.16807  0.00000 -0.33614
      14     H     0.41907  0.41907  0.00000  0.16187
      15     H     0.42164  0.42164  0.00000  0.15673
      16     C     3.16759  3.16759  0.00000 -0.33519
      17     H     0.42206  0.42206  0.00000  0.15587
      18     H     0.41763  0.41763  0.00000  0.16474
      19     C     3.15110  3.15110  0.00000 -0.30220
      20     H     0.42508  0.42508  0.00000  0.14983
      21     H     0.42628  0.42628  0.00000  0.14743
      22     C     3.24307  3.24307  0.00000 -0.48614
      23     H     0.42347  0.42347  0.00000  0.15305
      24     H     0.42004  0.42004  0.00000  0.15991
      25     H     0.41929  0.41929  0.00000  0.16142
      26     H     0.41768  0.41768  0.00000  0.16464
      27     H     0.42093  0.42093  0.00000  0.15815

   Total alpha = 37.00000, Total beta = 37.00000, Total charge =  0.00000


*** PSI4 exiting successfully. Buy a developer a beer!
