    -----------------------------------------------------------------------
          Psi4: An Open-Source Ab Initio Electronic Structure Package
                              Psi4 (no tag) Driver

                          Git: Rev {detached?}  

    J. M. Turney, A. C. Simmonett, R. M. Parrish, E. G. Hohenstein,
    F. A. Evangelista, J. T. Fermann, B. J. Mintz, L. A. Burns, J. J. Wilke,
    M. L. Abrams, N. J. Russ, M. L. Leininger, C. L. Janssen, E. T. Seidl,
    W. D. Allen, H. F. Schaefer, R. A. King, E. F. Valeev, C. D. Sherrill,
    and T. D. Crawford, WIREs Comput. Mol. Sci. 2, 556-565 (2012)
    (doi: 10.1002/wcms.93)

                         Additional Contributions by
    A. E. DePrince, M. Saitow, U. Bozkaya, A. Yu. Sokolov
    -----------------------------------------------------------------------


    Psi4 started on: Tue Jul  5 17:06:44 2016

    Process ID:  27702
    PSI4DATADIR: /export131/home/mjharvey/miniconda3/share
    Memory level set to 256.000 MB

  ==> Input File <==

--------------------------------------------------------------------------
set {
	reference rhf
	basis 6-31G*
}


set_num_threads( 1 )
memory 2 gb

molecule MOL {
0 1

H	 -3.266468	 -0.053249	 -2.551651
O	 -3.832202	 -0.769009	 -2.301244
C	 -3.138534	 -1.984995	 -2.420644
C	 -2.088677	 -2.187397	 -1.333648
H	 -3.890334	 -2.760693	 -2.351644
H	 -2.679382	 -2.066689	 -3.405167
C	 -0.948752	 -1.166613	 -1.371583
H	 -2.582092	 -2.147684	 -0.366006
H	 -1.679421	 -3.190657	 -1.440167
C	 0.115918	 -1.429151	 -0.302766
H	 -1.358136	 -0.169077	 -1.238571
H	 -0.479306	 -1.184469	 -2.355271
C	 0.579824	 -2.886769	 -0.200376
H	 0.976738	 -0.789893	 -0.490341
H	 -0.281545	 -1.125738	 0.663497
C	 0.727785	 -3.417141	 1.228361
H	 -0.136855	 -3.511425	 -0.729518
H	 1.526011	 -3.000648	 -0.727253
C	 1.089510	 -4.903113	 1.278129
H	 -0.203924	 -3.256926	 1.769064
H	 1.489685	 -2.852392	 1.760217
C	 1.244105	 -5.433542	 2.703053
H	 0.324002	 -5.477389	 0.760738
H	 2.015148	 -5.066637	 0.730097
H	 0.323796	 -5.314109	 3.267847
H	 1.498359	 -6.488998	 2.704892
H	 2.028698	 -4.903778	 3.236090

	symmetry c1
}
set optking {
	frozen_dihedral = ("
		14 10 7 4,
		10 7 4 8,
		8 4 3 2,
		10 13 16 20,
		20 16 19 22,
		4 3 2 1
	")
}

ee = energy('scf')
oeprop('DIPOLE', 'QUADRUPOLE', 'MULLIKEN_CHARGES')
f=open( 'psi4out.xyz', 'w' )
f.write( "27  " )
f.write( str(ee) + "\n" )
f.write( MOL.save_string_xyz() )
f.close()
--------------------------------------------------------------------------

  Memory set to   2.000 GiB by Python script.

*** tstart() called on cx1-3-4-2.cx1.hpc.ic.ac.uk
*** at Tue Jul  5 17:06:44 2016


         ---------------------------------------------------------
                                   SCF
            by Justin Turney, Rob Parrish, and Andy Simmonett
                              RHF Reference
                        1 Threads,   2000 MiB Core
         ---------------------------------------------------------

  ==> Geometry <==

    Molecular point group: c1
    Full point group: C1

    Geometry (in Angstrom), charge = 0, multiplicity = 1:

       Center              X                  Y                   Z               Mass       
    ------------   -----------------  -----------------  -----------------  -----------------
           H         -2.523040500023     2.613065544754    -2.224215971789     1.007825032070
           O         -3.088774500023     1.897305544754    -1.973808971789    15.994914619560
           C         -2.395106500023     0.681319544754    -2.093208971789    12.000000000000
           C         -1.345249500023     0.478917544754    -1.006212971789    12.000000000000
           H         -3.146906500023    -0.094378455246    -2.024208971789     1.007825032070
           H         -1.935954500023     0.599625544754    -3.077731971789     1.007825032070
           C         -0.205324500023     1.499701544754    -1.044147971789    12.000000000000
           H         -1.838664500023     0.518630544754    -0.038570971789     1.007825032070
           H         -0.935993500023    -0.524342455246    -1.112731971789     1.007825032070
           C          0.859345499977     1.237163544754     0.024669028211    12.000000000000
           H         -0.614708500023     2.497237544754    -0.911135971789     1.007825032070
           H          0.264121499977     1.481845544754    -2.027835971789     1.007825032070
           C          1.323251499977    -0.220454455246     0.127059028211    12.000000000000
           H          1.720165499977     1.876421544754    -0.162905971789     1.007825032070
           H          0.461882499977     1.540576544754     0.990932028211     1.007825032070
           C          1.471212499977    -0.750826455246     1.555796028211    12.000000000000
           H          0.606572499977    -0.845110455246    -0.402082971789     1.007825032070
           H          2.269438499977    -0.334333455246    -0.399817971789     1.007825032070
           C          1.832937499977    -2.236798455246     1.605564028211    12.000000000000
           H          0.539503499977    -0.590611455246     2.096499028211     1.007825032070
           H          2.233112499977    -0.186077455246     2.087652028211     1.007825032070
           C          1.987532499977    -2.767227455246     3.030488028211    12.000000000000
           H          1.067429499977    -2.811074455246     1.088173028211     1.007825032070
           H          2.758575499977    -2.400322455246     1.057532028211     1.007825032070
           H          1.067223499977    -2.647794455246     3.595282028211     1.007825032070
           H          2.241786499977    -3.822683455246     3.032327028211     1.007825032070
           H          2.772125499977    -2.237463455246     3.563525028211     1.007825032070

  Running in c1 symmetry.

  Rotational constants: A =      0.12033  B =      0.01592  C =      0.01486 [cm^-1]
  Rotational constants: A =   3607.34953  B =    477.40917  C =    445.47550 [MHz]
  Nuclear repulsion =  463.235063411446106

  Charge       = 0
  Multiplicity = 1
  Electrons    = 74
  Nalpha       = 37
  Nbeta        = 37

  ==> Algorithm <==

  SCF Algorithm Type is DF.
  DIIS enabled.
  MOM disabled.
  Fractional occupation disabled.
  Guess Type is CORE.
  Energy threshold   = 1.00e-06
  Density threshold  = 1.00e-06
  Integral threshold = 0.00e+00

  ==> Primary Basis <==

  Basis Set: 6-31G*
    Number of shells: 90
    Number of basis function: 171
    Number of Cartesian functions: 171
    Spherical Harmonics?: false
    Max angular momentum: 2

  ==> Pre-Iterations <==

   -------------------------------------------------------
    Irrep   Nso     Nmo     Nalpha   Nbeta   Ndocc  Nsocc
   -------------------------------------------------------
     A        171     171       0       0       0       0
   -------------------------------------------------------
    Total     171     171      37      37      37       0
   -------------------------------------------------------

 OEINTS: Overlap, kinetic, potential, dipole, and quadrupole integrals
         stored in file 35.

  ==> Integral Setup <==

  ==> DFJK: Density-Fitted J/K Matrices <==

    J tasked:                  Yes
    K tasked:                  Yes
    wK tasked:                  No
    OpenMP threads:              1
    Integrals threads:           1
    Memory (MB):              1430
    Algorithm:                Core
    Integral Cache:           NONE
    Schwarz Cutoff:          1E-12
    Fitting Condition:       1E-12

   => Auxiliary Basis Set <=

  Basis Set: 
    Number of shells: 378
    Number of basis function: 1179
    Number of Cartesian functions: 1179
    Spherical Harmonics?: false
    Max angular momentum: 3

  Minimum eigenvalue in the overlap matrix is 2.9801080062E-03.
  Using Symmetric Orthogonalization.
  SCF Guess: Core (One-Electron) Hamiltonian.

  ==> Iterations <==

                           Total Energy        Delta E     RMS |[F,P]|

   @DF-RHF iter   1:  -287.29733339577223   -2.87297e+02   5.85782e-02 
   @DF-RHF iter   2:    13.95636854740178    3.01254e+02   6.65785e-02 DIIS
   @DF-RHF iter   3:  -259.16997899795609   -2.73126e+02   5.13025e-02 DIIS
   @DF-RHF iter   4:  -237.82909253746362    2.13409e+01   6.63229e-02 DIIS
   @DF-RHF iter   5:  -374.77393828572559   -1.36945e+02   1.56674e-02 DIIS
   @DF-RHF iter   6:  -296.36353959528975    7.84104e+01   5.06968e-02 DIIS
   @DF-RHF iter   7:  -365.27949911373895   -6.89160e+01   2.53963e-02 DIIS
   @DF-RHF iter   8:  -387.96275109996481   -2.26833e+01   4.31810e-03 DIIS
   @DF-RHF iter   9:  -388.23220362712919   -2.69453e-01   1.34924e-03 DIIS
   @DF-RHF iter  10:  -388.26185195883539   -2.96483e-02   6.34767e-04 DIIS
   @DF-RHF iter  11:  -388.26772232279046   -5.87036e-03   3.62567e-04 DIIS
   @DF-RHF iter  12:  -388.27032541952173   -2.60310e-03   1.20323e-04 DIIS
   @DF-RHF iter  13:  -388.27063942509147   -3.14006e-04   4.55675e-05 DIIS
   @DF-RHF iter  14:  -388.27068965040479   -5.02253e-05   9.03347e-06 DIIS
   @DF-RHF iter  15:  -388.27069199285864   -2.34245e-06   1.94193e-06 DIIS
   @DF-RHF iter  16:  -388.27069210051849   -1.07660e-07   5.43413e-07 DIIS

  ==> Post-Iterations <==

    Orbital Energies (a.u.)
    -----------------------

    Doubly Occupied:                                                      

       1A    -20.552028     2A    -11.267078     3A    -11.221069  
       4A    -11.215852     5A    -11.215223     6A    -11.214159  
       7A    -11.214140     8A    -11.211875     9A    -11.208684  
      10A     -1.358892    11A     -1.096589    12A     -1.061457  
      13A     -1.007649    14A     -0.951990    15A     -0.882612  
      16A     -0.834357    17A     -0.795445    18A     -0.772369  
      19A     -0.694006    20A     -0.655957    21A     -0.638553  
      22A     -0.614018    23A     -0.604156    24A     -0.585538  
      25A     -0.569362    26A     -0.553265    27A     -0.544378  
      28A     -0.524392    29A     -0.515874    30A     -0.502713  
      31A     -0.477945    32A     -0.475292    33A     -0.462467  
      34A     -0.454985    35A     -0.449574    36A     -0.437362  
      37A     -0.426786  

    Virtual:                                                              

      38A      0.220662    39A      0.230127    40A      0.246832  
      41A      0.254820    42A      0.261557    43A      0.279856  
      44A      0.288389    45A      0.303020    46A      0.303695  
      47A      0.323315    48A      0.326699    49A      0.335699  
      50A      0.341396    51A      0.346430    52A      0.352300  
      53A      0.366990    54A      0.372327    55A      0.377834  
      56A      0.401882    57A      0.411174    58A      0.424701  
      59A      0.444402    60A      0.465937    61A      0.472094  
      62A      0.483308    63A      0.517010    64A      0.691988  
      65A      0.700535    66A      0.718557    67A      0.742781  
      68A      0.752000    69A      0.754352    70A      0.802704  
      71A      0.816963    72A      0.821112    73A      0.831117  
      74A      0.855444    75A      0.886770    76A      0.928832  
      77A      0.943398    78A      0.953431    79A      0.973130  
      80A      0.986303    81A      1.006575    82A      1.033478  
      83A      1.060039    84A      1.061098    85A      1.090309  
      86A      1.102297    87A      1.127725    88A      1.136899  
      89A      1.145522    90A      1.155053    91A      1.172592  
      92A      1.174149    93A      1.180608    94A      1.192576  
      95A      1.201848    96A      1.211981    97A      1.213931  
      98A      1.215361    99A      1.229571   100A      1.235560  
     101A      1.242436   102A      1.263098   103A      1.264473  
     104A      1.271082   105A      1.286246   106A      1.341627  
     107A      1.360125   108A      1.400098   109A      1.455854  
     110A      1.491633   111A      1.579719   112A      1.631293  
     113A      1.667292   114A      1.705457   115A      1.743120  
     116A      1.758386   117A      1.814224   118A      1.847448  
     119A      1.852395   120A      1.888350   121A      1.946864  
     122A      1.956720   123A      2.010372   124A      2.076386  
     125A      2.098568   126A      2.128745   127A      2.139719  
     128A      2.174444   129A      2.213453   130A      2.236835  
     131A      2.269575   132A      2.282150   133A      2.286510  
     134A      2.311058   135A      2.333758   136A      2.346621  
     137A      2.367055   138A      2.392143   139A      2.436633  
     140A      2.465876   141A      2.475008   142A      2.573118  
     143A      2.600867   144A      2.626508   145A      2.668514  
     146A      2.680265   147A      2.681910   148A      2.708055  
     149A      2.750986   150A      2.768108   151A      2.771451  
     152A      2.783243   153A      2.806943   154A      2.894827  
     155A      2.930537   156A      2.951766   157A      2.980425  
     158A      3.062256   159A      3.088034   160A      3.149763  
     161A      3.193370   162A      3.222157   163A      4.192867  
     164A      4.551382   165A      4.607075   166A      4.698743  
     167A      4.757143   168A      4.818897   169A      4.875370  
     170A      4.948635   171A      5.039823  

    Final Occupation by Irrep:
              A 
    DOCC [    37 ]

  Energy converged.

  @DF-RHF Final Energy:  -388.27069210051849

   => Energetics <=

    Nuclear Repulsion Energy =            463.2350634114461059
    One-Electron Energy =               -1444.4755561830386341
    Two-Electron Energy =                 592.9698006710784739
    DFT Exchange-Correlation Energy =       0.0000000000000000
    Empirical Dispersion Energy =           0.0000000000000000
    PCM Polarization Energy =               0.0000000000000000
    EFP Energy =                            0.0000000000000000
    Total Energy =                       -388.2706921005139975

    Alert: EFP and PCM quantities not currently incorporated into SCF psivars.

Properties will be evaluated at   0.000000,   0.000000,   0.000000 Bohr
  ==> Properties <==


Properties computed using the SCF density matrix

  Nuclear Dipole Moment: (a.u.)
     X:     6.5537      Y:    -5.0221      Z:     4.8004

  Electronic Dipole Moment: (a.u.)
     X:    -5.8395      Y:     4.9504      Z:    -4.9617

  Dipole Moment: (a.u.)
     X:     0.7142      Y:    -0.0717      Z:    -0.1613     Total:     0.7357

  Dipole Moment: (Debye)
     X:     1.8153      Y:    -0.1822      Z:    -0.4099     Total:     1.8699


  Saving occupied orbitals to File 180.

*** tstop() called on cx1-3-4-2.cx1.hpc.ic.ac.uk at Tue Jul  5 17:07:16 2016
Module time:
	user time   =      31.12 seconds =       0.52 minutes
	system time =       0.31 seconds =       0.01 minutes
	total time  =         32 seconds =       0.53 minutes
Total time:
	user time   =      31.12 seconds =       0.52 minutes
	system time =       0.31 seconds =       0.01 minutes
	total time  =         32 seconds =       0.53 minutes


Properties will be evaluated at   0.000000,   0.000000,   0.000000 Bohr

Properties computed using the  density matrix

  Nuclear Dipole Moment: (a.u.)
     X:     6.5537      Y:    -5.0221      Z:     4.8004

  Electronic Dipole Moment: (a.u.)
     X:    -5.8395      Y:     4.9504      Z:    -4.9617

  Dipole Moment: (a.u.)
     X:     0.7142      Y:    -0.0717      Z:    -0.1613     Total:     0.7357

  Dipole Moment: (Debye)
     X:     1.8153      Y:    -0.1822      Z:    -0.4099     Total:     1.8699

  Quadrupole Moment: (Debye Ang)
    XX:   -70.1651     YY:   -58.6274     ZZ:   -59.3068
    XY:     4.4343     XZ:    -2.8757     YZ:    -0.6041

  Traceless Quadrupole Moment: (Debye Ang)
    XX:    -7.4653     YY:     4.0723     ZZ:     3.3930
    XY:     4.4343     XZ:    -2.8757     YZ:    -0.6041

  Mulliken Charges: (a.u.)
   Center  Symbol    Alpha    Beta     Spin     Total
       1     H     0.28007  0.28007  0.00000  0.43985
       2     O     4.37166  4.37166  0.00000 -0.74333
       3     C     2.99435  2.99435  0.00000  0.01130
       4     C     3.16710  3.16710  0.00000 -0.33419
       5     H     0.41478  0.41478  0.00000  0.17044
       6     H     0.43209  0.43209  0.00000  0.13582
       7     C     3.16300  3.16300  0.00000 -0.32600
       8     H     0.41522  0.41522  0.00000  0.16956
       9     H     0.42114  0.42114  0.00000  0.15771
      10     C     3.15532  3.15532  0.00000 -0.31064
      11     H     0.42199  0.42199  0.00000  0.15602
      12     H     0.42516  0.42516  0.00000  0.14968
      13     C     3.15756  3.15756  0.00000 -0.31511
      14     H     0.41904  0.41904  0.00000  0.16191
      15     H     0.41997  0.41997  0.00000  0.16006
      16     C     3.15115  3.15115  0.00000 -0.30230
      17     H     0.42171  0.42171  0.00000  0.15659
      18     H     0.42141  0.42141  0.00000  0.15718
      19     C     3.15200  3.15200  0.00000 -0.30400
      20     H     0.42356  0.42356  0.00000  0.15288
      21     H     0.42304  0.42304  0.00000  0.15392
      22     C     3.23934  3.23934  0.00000 -0.47867
      23     H     0.42346  0.42346  0.00000  0.15308
      24     H     0.42312  0.42312  0.00000  0.15376
      25     H     0.42161  0.42161  0.00000  0.15679
      26     H     0.41936  0.41936  0.00000  0.16128
      27     H     0.42180  0.42180  0.00000  0.15641

   Total alpha = 37.00000, Total beta = 37.00000, Total charge =  0.00000


*** PSI4 exiting successfully. Buy a developer a beer!
