    -----------------------------------------------------------------------
          Psi4: An Open-Source Ab Initio Electronic Structure Package
                              Psi4 (no tag) Driver

                          Git: Rev {detached?}  

    J. M. Turney, A. C. Simmonett, R. M. Parrish, E. G. Hohenstein,
    F. A. Evangelista, J. T. Fermann, B. J. Mintz, L. A. Burns, J. J. Wilke,
    M. L. Abrams, N. J. Russ, M. L. Leininger, C. L. Janssen, E. T. Seidl,
    W. D. Allen, H. F. Schaefer, R. A. King, E. F. Valeev, C. D. Sherrill,
    and T. D. Crawford, WIREs Comput. Mol. Sci. 2, 556-565 (2012)
    (doi: 10.1002/wcms.93)

                         Additional Contributions by
    A. E. DePrince, M. Saitow, U. Bozkaya, A. Yu. Sokolov
    -----------------------------------------------------------------------


    Psi4 started on: Tue Jul  5 16:38:34 2016

    Process ID:  16744
    PSI4DATADIR: /export131/home/mjharvey/miniconda3/share
    Memory level set to 256.000 MB

  ==> Input File <==

--------------------------------------------------------------------------
set {
	reference rhf
	basis 6-31G*
}


set_num_threads( 1 )
memory 2 gb

molecule MOL {
0 1

O	 -2.439739	 -0.935931	 -0.423848
C	 -1.921153	 0.064240	 -0.045697
C	 -2.624470	 1.379923	 0.150949
O	 -0.632575	 0.154573	 0.251549
H	 -2.168117	 2.136577	 -0.476876
H	 -3.669540	 1.273223	 -0.098610
H	 -2.519365	 1.700893	 1.180846
C	 0.160891	 -1.019931	 0.106212
C	 1.589627	 -0.672828	 0.480843
H	 0.089836	 -1.367806	 -0.916050
H	 -0.238459	 -1.792301	 0.749618
C	 2.246377	 0.346236	 -0.452210
H	 2.163194	 -1.597435	 0.473358
H	 1.604769	 -0.303424	 1.502885
C	 2.132778	 -0.048273	 -1.924100
H	 1.783957	 1.319736	 -0.301994
H	 3.292225	 0.455910	 -0.184758
H	 2.606373	 0.688959	 -2.564591
H	 1.093857	 -0.133585	 -2.230111
H	 2.611738	 -1.005135	 -2.111429

	symmetry c1
}
set optking {
	frozen_dihedral = ("
		2 4 8 10,
		12 9 8 10,
		1 2 4 8
	")
}

ee = energy('scf')
oeprop('DIPOLE', 'QUADRUPOLE', 'MULLIKEN_CHARGES')
f=open( 'psi4out.xyz', 'w' )
f.write( "20  " )
f.write( str(ee) + "\n" )
f.write( MOL.save_string_xyz() )
f.close()
--------------------------------------------------------------------------

  Memory set to   2.000 GiB by Python script.

*** tstart() called on cx1-1-1-1.cx1.hpc.ic.ac.uk
*** at Tue Jul  5 16:38:35 2016


         ---------------------------------------------------------
                                   SCF
            by Justin Turney, Rob Parrish, and Andy Simmonett
                              RHF Reference
                        1 Threads,   2000 MiB Core
         ---------------------------------------------------------

  ==> Geometry <==

    Molecular point group: c1
    Full point group: C1

    Geometry (in Angstrom), charge = 0, multiplicity = 1:

       Center              X                  Y                   Z               Mass       
    ------------   -----------------  -----------------  -----------------  -----------------
           O         -2.237899413479    -0.845315594005    -0.182809857612    15.994914619560
           C         -1.719313413479     0.154855405995     0.195341142388    12.000000000000
           C         -2.422630413479     1.470538405995     0.391987142388    12.000000000000
           O         -0.430735413479     0.245188405995     0.492587142388    15.994914619560
           H         -1.966277413479     2.227192405995    -0.235837857612     1.007825032070
           H         -3.467700413479     1.363838405995     0.142428142388     1.007825032070
           H         -2.317525413479     1.791508405995     1.421884142388     1.007825032070
           C          0.362730586521    -0.929315594005     0.347250142388    12.000000000000
           C          1.791466586521    -0.582212594005     0.721881142388    12.000000000000
           H          0.291675586521    -1.277190594005    -0.675011857612     1.007825032070
           H         -0.036619413479    -1.701685594005     0.990656142388     1.007825032070
           C          2.448216586521     0.436851405995    -0.211171857612    12.000000000000
           H          2.365033586521    -1.506819594005     0.714396142388     1.007825032070
           H          1.806608586521    -0.212808594005     1.743923142388     1.007825032070
           C          2.334617586521     0.042342405995    -1.683061857612    12.000000000000
           H          1.985796586521     1.410351405995    -0.060955857612     1.007825032070
           H          3.494064586521     0.546525405995     0.056280142388     1.007825032070
           H          2.808212586521     0.779574405995    -2.323552857612     1.007825032070
           H          1.295696586521    -0.042969594005    -1.989072857612     1.007825032070
           H          2.813577586521    -0.914519594005    -1.870390857612     1.007825032070

  Running in c1 symmetry.

  Rotational constants: A =      0.12771  B =      0.03363  C =      0.03251 [cm^-1]
  Rotational constants: A =   3828.67151  B =   1008.13454  C =    974.61049 [MHz]
  Nuclear repulsion =  393.642731853845021

  Charge       = 0
  Multiplicity = 1
  Electrons    = 64
  Nalpha       = 32
  Nbeta        = 32

  ==> Algorithm <==

  SCF Algorithm Type is DF.
  DIIS enabled.
  MOM disabled.
  Fractional occupation disabled.
  Guess Type is CORE.
  Energy threshold   = 1.00e-06
  Density threshold  = 1.00e-06
  Integral threshold = 0.00e+00

  ==> Primary Basis <==

  Basis Set: 6-31G*
    Number of shells: 72
    Number of basis function: 144
    Number of Cartesian functions: 144
    Spherical Harmonics?: false
    Max angular momentum: 2

  ==> Pre-Iterations <==

   -------------------------------------------------------
    Irrep   Nso     Nmo     Nalpha   Nbeta   Ndocc  Nsocc
   -------------------------------------------------------
     A        144     144       0       0       0       0
   -------------------------------------------------------
    Total     144     144      32      32      32       0
   -------------------------------------------------------

 OEINTS: Overlap, kinetic, potential, dipole, and quadrupole integrals
         stored in file 35.

  ==> Integral Setup <==

  ==> DFJK: Density-Fitted J/K Matrices <==

    J tasked:                  Yes
    K tasked:                  Yes
    wK tasked:                  No
    OpenMP threads:              1
    Integrals threads:           1
    Memory (MB):              1430
    Algorithm:                Core
    Integral Cache:           NONE
    Schwarz Cutoff:          1E-12
    Fitting Condition:       1E-12

   => Auxiliary Basis Set <=

  Basis Set: 
    Number of shells: 300
    Number of basis function: 948
    Number of Cartesian functions: 948
    Spherical Harmonics?: false
    Max angular momentum: 3

  Minimum eigenvalue in the overlap matrix is 3.7946386207E-03.
  Using Symmetric Orthogonalization.
  SCF Guess: Core (One-Electron) Hamiltonian.

  ==> Iterations <==

                           Total Energy        Delta E     RMS |[F,P]|

   @DF-RHF iter   1:  -254.37605579461615   -2.54376e+02   7.35986e-02 
   @DF-RHF iter   2:  -182.28344288655887    7.20926e+01   7.88431e-02 DIIS
   @DF-RHF iter   3:  -298.88931368690498   -1.16606e+02   5.84029e-02 DIIS
   @DF-RHF iter   4:  -321.81557148432853   -2.29263e+01   4.65307e-02 DIIS
   @DF-RHF iter   5:  -352.32789613412467   -3.05123e+01   3.96419e-02 DIIS
   @DF-RHF iter   6:  -383.39614419578481   -3.10682e+01   7.37328e-03 DIIS
   @DF-RHF iter   7:  -383.76332026016701   -3.67176e-01   4.64935e-03 DIIS
   @DF-RHF iter   8:  -383.92351800130382   -1.60198e-01   1.15386e-03 DIIS
   @DF-RHF iter   9:  -383.93921684629254   -1.56988e-02   4.72932e-04 DIIS
   @DF-RHF iter  10:  -383.94218297623650   -2.96613e-03   1.60198e-04 DIIS
   @DF-RHF iter  11:  -383.94260856760468   -4.25591e-04   3.69426e-05 DIIS
   @DF-RHF iter  12:  -383.94263483477596   -2.62672e-05   1.16797e-05 DIIS
   @DF-RHF iter  13:  -383.94263707441758   -2.23964e-06   3.19087e-06 DIIS
   @DF-RHF iter  14:  -383.94263732677121   -2.52354e-07   1.04690e-06 DIIS
   @DF-RHF iter  15:  -383.94263735193806   -2.51669e-08   4.57526e-07 DIIS

  ==> Post-Iterations <==

    Orbital Energies (a.u.)
    -----------------------

    Doubly Occupied:                                                      

       1A    -20.602046     2A    -20.544340     3A    -11.374726  
       4A    -11.280950     5A    -11.233555     6A    -11.225255  
       7A    -11.220665     8A    -11.212898     9A     -1.468153  
      10A     -1.362427    11A     -1.088174    12A     -1.026581  
      13A     -0.977274    14A     -0.891830    15A     -0.806578  
      16A     -0.768253    17A     -0.691629    18A     -0.688874  
      19A     -0.664408    20A     -0.623141    21A     -0.620783  
      22A     -0.578129    23A     -0.572707    24A     -0.562501  
      25A     -0.536473    26A     -0.529401    27A     -0.520712  
      28A     -0.476973    29A     -0.475740    30A     -0.470288  
      31A     -0.449736    32A     -0.438833  

    Virtual:                                                              

      33A      0.198498    34A      0.226913    35A      0.255175  
      36A      0.268715    37A      0.283562    38A      0.288694  
      39A      0.305076    40A      0.315036    41A      0.315957  
      42A      0.333276    43A      0.343102    44A      0.359933  
      45A      0.364843    46A      0.380743    47A      0.394547  
      48A      0.405298    49A      0.418641    50A      0.463485  
      51A      0.508376    52A      0.552394    53A      0.700192  
      54A      0.723737    55A      0.730740    56A      0.743275  
      57A      0.755501    58A      0.769800    59A      0.785936  
      60A      0.811478    61A      0.831709    62A      0.842503  
      63A      0.895698    64A      0.921942    65A      0.932482  
      66A      0.960943    67A      0.983593    68A      1.013535  
      69A      1.074877    70A      1.080227    71A      1.105603  
      72A      1.113849    73A      1.130099    74A      1.146230  
      75A      1.152743    76A      1.168166    77A      1.180757  
      78A      1.188745    79A      1.194560    80A      1.217428  
      81A      1.223940    82A      1.235731    83A      1.240390  
      84A      1.258971    85A      1.273421    86A      1.316112  
      87A      1.357617    88A      1.415746    89A      1.444490  
      90A      1.490150    91A      1.544652    92A      1.642569  
      93A      1.652689    94A      1.702201    95A      1.734711  
      96A      1.776464    97A      1.804155    98A      1.875313  
      99A      1.885337   100A      1.956296   101A      1.964216  
     102A      2.010161   103A      2.049657   104A      2.094156  
     105A      2.104291   106A      2.160745   107A      2.186939  
     108A      2.206294   109A      2.264972   110A      2.284213  
     111A      2.296626   112A      2.342873   113A      2.367234  
     114A      2.372277   115A      2.447688   116A      2.471617  
     117A      2.514494   118A      2.537178   119A      2.567773  
     120A      2.619506   121A      2.659834   122A      2.683918  
     123A      2.685390   124A      2.731359   125A      2.750287  
     126A      2.776117   127A      2.850173   128A      2.927915  
     129A      2.981653   130A      3.013458   131A      3.062730  
     132A      3.091834   133A      3.174158   134A      3.352807  
     135A      3.426582   136A      3.568439   137A      4.430552  
     138A      4.532604   139A      4.577145   140A      4.611628  
     141A      4.735910   142A      4.832028   143A      4.889608  
     144A      4.957790  

    Final Occupation by Irrep:
              A 
    DOCC [    32 ]

  Energy converged.

  @DF-RHF Final Energy:  -383.94263735193806

   => Energetics <=

    Nuclear Repulsion Energy =            393.6427318538450209
    One-Electron Energy =               -1303.2026255160571964
    Two-Electron Energy =                 525.6172563102743425
    DFT Exchange-Correlation Energy =       0.0000000000000000
    Empirical Dispersion Energy =           0.0000000000000000
    PCM Polarization Energy =               0.0000000000000000
    EFP Energy =                            0.0000000000000000
    Total Energy =                       -383.9426373519378330

    Alert: EFP and PCM quantities not currently incorporated into SCF psivars.

Properties will be evaluated at   0.000000,   0.000000,   0.000000 Bohr
  ==> Properties <==


Properties computed using the SCF density matrix

  Nuclear Dipole Moment: (a.u.)
     X:     8.4924      Y:     2.3061      Z:    -1.9534

  Electronic Dipole Moment: (a.u.)
     X:    -7.8680      Y:    -1.7423      Z:     2.2199

  Dipole Moment: (a.u.)
     X:     0.6244      Y:     0.5638      Z:     0.2665     Total:     0.8825

  Dipole Moment: (Debye)
     X:     1.5872      Y:     1.4331      Z:     0.6775     Total:     2.2432


  Saving occupied orbitals to File 180.

*** tstop() called on cx1-1-1-1.cx1.hpc.ic.ac.uk at Tue Jul  5 16:38:52 2016
Module time:
	user time   =      16.39 seconds =       0.27 minutes
	system time =       0.17 seconds =       0.00 minutes
	total time  =         17 seconds =       0.28 minutes
Total time:
	user time   =      16.39 seconds =       0.27 minutes
	system time =       0.17 seconds =       0.00 minutes
	total time  =         17 seconds =       0.28 minutes


Properties will be evaluated at   0.000000,   0.000000,   0.000000 Bohr

Properties computed using the  density matrix

  Nuclear Dipole Moment: (a.u.)
     X:     8.4924      Y:     2.3061      Z:    -1.9534

  Electronic Dipole Moment: (a.u.)
     X:    -7.8680      Y:    -1.7423      Z:     2.2199

  Dipole Moment: (a.u.)
     X:     0.6244      Y:     0.5638      Z:     0.2665     Total:     0.8825

  Dipole Moment: (Debye)
     X:     1.5872      Y:     1.4331      Z:     0.6775     Total:     2.2432

  Quadrupole Moment: (Debye Ang)
    XX:   -52.0783     YY:   -49.5808     ZZ:   -49.5530
    XY:    -7.1221     XZ:    -1.8268     YZ:    -1.0608

  Traceless Quadrupole Moment: (Debye Ang)
    XX:    -1.6743     YY:     0.8232     ZZ:     0.8510
    XY:    -7.1221     XZ:    -1.8268     YZ:    -1.0608

  Mulliken Charges: (a.u.)
   Center  Symbol    Alpha    Beta     Spin     Total
       1     O     4.28306  4.28306  0.00000 -0.56612
       2     C     2.61967  2.61967  0.00000  0.76066
       3     C     3.28169  3.28169  0.00000 -0.56338
       4     O     4.30870  4.30870  0.00000 -0.61740
       5     H     0.40073  0.40073  0.00000  0.19854
       6     H     0.39686  0.39686  0.00000  0.20629
       7     H     0.40055  0.40055  0.00000  0.19890
       8     C     3.00784  3.00784  0.00000 -0.01567
       9     C     3.16627  3.16627  0.00000 -0.33254
      10     H     0.40762  0.40762  0.00000  0.18476
      11     H     0.40766  0.40766  0.00000  0.18467
      12     C     3.15359  3.15359  0.00000 -0.30718
      13     H     0.41816  0.41816  0.00000  0.16367
      14     H     0.41252  0.41252  0.00000  0.17496
      15     C     3.24720  3.24720  0.00000 -0.49440
      16     H     0.41380  0.41380  0.00000  0.17239
      17     H     0.41844  0.41844  0.00000  0.16312
      18     H     0.41658  0.41658  0.00000  0.16683
      19     H     0.41738  0.41738  0.00000  0.16524
      20     H     0.42168  0.42168  0.00000  0.15663

   Total alpha = 32.00000, Total beta = 32.00000, Total charge = -0.00000


*** PSI4 exiting successfully. Buy a developer a beer!
