    -----------------------------------------------------------------------
          Psi4: An Open-Source Ab Initio Electronic Structure Package
                              Psi4 (no tag) Driver

                          Git: Rev {detached?}  

    J. M. Turney, A. C. Simmonett, R. M. Parrish, E. G. Hohenstein,
    F. A. Evangelista, J. T. Fermann, B. J. Mintz, L. A. Burns, J. J. Wilke,
    M. L. Abrams, N. J. Russ, M. L. Leininger, C. L. Janssen, E. T. Seidl,
    W. D. Allen, H. F. Schaefer, R. A. King, E. F. Valeev, C. D. Sherrill,
    and T. D. Crawford, WIREs Comput. Mol. Sci. 2, 556-565 (2012)
    (doi: 10.1002/wcms.93)

                         Additional Contributions by
    A. E. DePrince, M. Saitow, U. Bozkaya, A. Yu. Sokolov
    -----------------------------------------------------------------------


    Psi4 started on: Tue Jul  5 17:01:19 2016

    Process ID:  16711
    PSI4DATADIR: /export131/home/mjharvey/miniconda3/share
    Memory level set to 256.000 MB

  ==> Input File <==

--------------------------------------------------------------------------
set {
	reference rhf
	basis 6-31G*
}


set_num_threads( 1 )
memory 2 gb

molecule MOL {
0 1

H	 -0.000158	 1.970498	 0.756846
O	 -0.000074	 1.880206	 -0.189275
C	 -0.000015	 0.544847	 -0.545111
C	 -1.146713	 -0.178430	 0.153418
C	 1.372058	 -0.064025	 -0.275501
H	 -0.178470	 0.486751	 -1.608540
F	 -1.869679	 -0.824074	 -0.736530
F	 -0.719086	 -1.050819	 1.041355
F	 -1.940023	 0.682981	 0.770044
F	 2.283717	 0.570380	 -0.981153
F	 1.423530	 -1.339565	 -0.596012
F	 1.696156	 0.053849	 1.002248

	symmetry c1
}
set optking {
	frozen_dihedral = ("
		6 3 2 1
	")
}

ee = energy('scf')
oeprop('DIPOLE', 'QUADRUPOLE', 'MULLIKEN_CHARGES')
f=open( 'psi4out.xyz', 'w' )
f.write( "12  " )
f.write( str(ee) + "\n" )
f.write( MOL.save_string_xyz() )
f.close()
--------------------------------------------------------------------------

  Memory set to   2.000 GiB by Python script.

*** tstart() called on cx1-3-4-4.cx1.hpc.ic.ac.uk
*** at Tue Jul  5 17:01:19 2016


         ---------------------------------------------------------
                                   SCF
            by Justin Turney, Rob Parrish, and Andy Simmonett
                              RHF Reference
                        1 Threads,   2000 MiB Core
         ---------------------------------------------------------

  ==> Geometry <==

    Molecular point group: c1
    Full point group: C1

    Geometry (in Angstrom), charge = 0, multiplicity = 1:

       Center              X                  Y                   Z               Mass       
    ------------   -----------------  -----------------  -----------------  -----------------
           H         -0.114080184165     1.970829849620     0.771094930283     1.007825032070
           O         -0.113996184165     1.880537849620    -0.175026069717    15.994914619560
           C         -0.113937184165     0.545178849620    -0.530862069717    12.000000000000
           C         -1.260635184165    -0.178098150380     0.167666930283    12.000000000000
           C          1.258135815835    -0.063693150380    -0.261252069717    12.000000000000
           H         -0.292392184165     0.487082849620    -1.594291069717     1.007825032070
           F         -1.983601184165    -0.823742150380    -0.722281069717    18.998403224000
           F         -0.833008184165    -1.050487150380     1.055603930283    18.998403224000
           F         -2.053945184165     0.683312849620     0.784292930283    18.998403224000
           F          2.169794815835     0.570711849620    -0.966904069717    18.998403224000
           F          1.309607815835    -1.339233150380    -0.581763069717    18.998403224000
           F          1.582233815835     0.054180849620     1.016496930283    18.998403224000

  Running in c1 symmetry.

  Rotational constants: A =      0.07209  B =      0.03576  C =      0.03167 [cm^-1]
  Rotational constants: A =   2161.30316  B =   1072.03746  C =    949.54738 [MHz]
  Nuclear repulsion =  670.996826379689992

  Charge       = 0
  Multiplicity = 1
  Electrons    = 82
  Nalpha       = 41
  Nbeta        = 41

  ==> Algorithm <==

  SCF Algorithm Type is DF.
  DIIS enabled.
  MOM disabled.
  Fractional occupation disabled.
  Guess Type is CORE.
  Energy threshold   = 1.00e-06
  Density threshold  = 1.00e-06
  Integral threshold = 0.00e+00

  ==> Primary Basis <==

  Basis Set: 6-31G*
    Number of shells: 64
    Number of basis function: 154
    Number of Cartesian functions: 154
    Spherical Harmonics?: false
    Max angular momentum: 2

  ==> Pre-Iterations <==

   -------------------------------------------------------
    Irrep   Nso     Nmo     Nalpha   Nbeta   Ndocc  Nsocc
   -------------------------------------------------------
     A        154     154       0       0       0       0
   -------------------------------------------------------
    Total     154     154      41      41      41       0
   -------------------------------------------------------

 OEINTS: Overlap, kinetic, potential, dipole, and quadrupole integrals
         stored in file 35.

  ==> Integral Setup <==

  ==> DFJK: Density-Fitted J/K Matrices <==

    J tasked:                  Yes
    K tasked:                  Yes
    wK tasked:                  No
    OpenMP threads:              1
    Integrals threads:           1
    Memory (MB):              1430
    Algorithm:                Core
    Integral Cache:           NONE
    Schwarz Cutoff:          1E-12
    Fitting Condition:       1E-12

   => Auxiliary Basis Set <=

  Basis Set: 
    Number of shells: 258
    Number of basis function: 860
    Number of Cartesian functions: 860
    Spherical Harmonics?: false
    Max angular momentum: 3

  Minimum eigenvalue in the overlap matrix is 1.0592499937E-03.
  Using Symmetric Orthogonalization.
  SCF Guess: Core (One-Electron) Hamiltonian.

  ==> Iterations <==

                           Total Energy        Delta E     RMS |[F,P]|

   @DF-RHF iter   1:  -701.77840014703065   -7.01778e+02   6.77569e-02 
   @DF-RHF iter   2:  -564.24907417785789    1.37529e+02   8.58385e-02 DIIS
   @DF-RHF iter   3:  -736.86723626487174   -1.72618e+02   4.74882e-02 DIIS
   @DF-RHF iter   4:  -734.57397653975431    2.29326e+00   4.74073e-02 DIIS
   @DF-RHF iter   5:  -775.59343162902064   -4.10195e+01   2.84573e-02 DIIS
   @DF-RHF iter   6:  -785.73573875969032   -1.01423e+01   7.83948e-03 DIIS
   @DF-RHF iter   7:  -786.19018346554753   -4.54445e-01   3.07207e-03 DIIS
   @DF-RHF iter   8:  -786.26316795282469   -7.29845e-02   8.78549e-04 DIIS
   @DF-RHF iter   9:  -786.27012211539591   -6.95416e-03   2.36749e-04 DIIS
   @DF-RHF iter  10:  -786.27082307412729   -7.00959e-04   7.73319e-05 DIIS
   @DF-RHF iter  11:  -786.27089379481481   -7.07207e-05   3.76175e-05 DIIS
   @DF-RHF iter  12:  -786.27091001137842   -1.62166e-05   7.75143e-06 DIIS
   @DF-RHF iter  13:  -786.27091103063685   -1.01926e-06   1.87892e-06 DIIS
   @DF-RHF iter  14:  -786.27091110565925   -7.50224e-08   5.82612e-07 DIIS

  ==> Post-Iterations <==

    Orbital Energies (a.u.)
    -----------------------

    Doubly Occupied:                                                      

       1A    -26.364175     2A    -26.363035     3A    -26.361178  
       4A    -26.360594     5A    -26.358928     6A    -26.356041  
       7A    -20.613455     8A    -11.527853     9A    -11.523533  
      10A    -11.347181    11A     -1.765885    12A     -1.757816  
      13A     -1.662420    14A     -1.659388    15A     -1.657288  
      16A     -1.653366    17A     -1.433106    18A     -1.101427  
      19A     -0.997474    20A     -0.936841    21A     -0.867235  
      22A     -0.861502    23A     -0.851476    24A     -0.845473  
      25A     -0.834692    26A     -0.810992    27A     -0.734829  
      28A     -0.731932    29A     -0.727510    30A     -0.723039  
      31A     -0.688186    32A     -0.685317    33A     -0.682400  
      34A     -0.677635    35A     -0.668016    36A     -0.663092  
      37A     -0.656099    38A     -0.649776    39A     -0.616184  
      40A     -0.549510    41A     -0.504813  

    Virtual:                                                              

      42A      0.207644    43A      0.242497    44A      0.282923  
      45A      0.335888    46A      0.369679    47A      0.405008  
      48A      0.452780    49A      0.461577    50A      0.489952  
      51A      0.536924    52A      0.551874    53A      0.668694  
      54A      0.673906    55A      0.710625    56A      0.735074  
      57A      0.748336    58A      0.784700    59A      0.795517  
      60A      0.846693    61A      0.910741    62A      0.972459  
      63A      1.051475    64A      1.076268    65A      1.110843  
      66A      1.168232    67A      1.208287    68A      1.253374  
      69A      1.296426    70A      1.306542    71A      1.341591  
      72A      1.357992    73A      1.365262    74A      1.384631  
      75A      1.423166    76A      1.463978    77A      1.542206  
      78A      1.569620    79A      1.584646    80A      1.594964  
      81A      1.614111    82A      1.625717    83A      1.633482  
      84A      1.640441    85A      1.649065    86A      1.658108  
      87A      1.662494    88A      1.680556    89A      1.708991  
      90A      1.723126    91A      1.744184    92A      1.781345  
      93A      1.868727    94A      1.901722    95A      1.910015  
      96A      1.964937    97A      1.985573    98A      2.014665  
      99A      2.027998   100A      2.082695   101A      2.095601  
     102A      2.106103   103A      2.111102   104A      2.117473  
     105A      2.122937   106A      2.158893   107A      2.170472  
     108A      2.199257   109A      2.286705   110A      2.300890  
     111A      2.308166   112A      2.331999   113A      2.334451  
     114A      2.353981   115A      2.374281   116A      2.393951  
     117A      2.399335   118A      2.401226   119A      2.422029  
     120A      2.479514   121A      2.509449   122A      2.539386  
     123A      2.582578   124A      2.614441   125A      2.670284  
     126A      2.751926   127A      2.772589   128A      2.809015  
     129A      2.851251   130A      2.931196   131A      3.000862  
     132A      3.058997   133A      3.126160   134A      3.175482  
     135A      3.194428   136A      3.234207   137A      3.264263  
     138A      3.303487   139A      3.411647   140A      3.414798  
     141A      3.419641   142A      3.455065   143A      3.470005  
     144A      3.481231   145A      4.161042   146A      4.578336  
     147A      4.731179   148A      4.866312   149A      5.035980  
     150A      5.153708   151A      5.227291   152A      5.455141  
     153A      5.858784   154A      6.645773  

    Final Occupation by Irrep:
              A 
    DOCC [    41 ]

  Energy converged.

  @DF-RHF Final Energy:  -786.27091110565925

   => Energetics <=

    Nuclear Repulsion Energy =            670.9968263796899919
    One-Electron Energy =               -2428.8739620668229691
    Two-Electron Energy =                 971.6062245814723610
    DFT Exchange-Correlation Energy =       0.0000000000000000
    Empirical Dispersion Energy =           0.0000000000000000
    PCM Polarization Energy =               0.0000000000000000
    EFP Energy =                            0.0000000000000000
    Total Energy =                       -786.2709111056606162

    Alert: EFP and PCM quantities not currently incorporated into SCF psivars.

Properties will be evaluated at   0.000000,   0.000000,   0.000000 Bohr
  ==> Properties <==


Properties computed using the SCF density matrix

  Nuclear Dipole Moment: (a.u.)
     X:    -0.5619      Y:     4.1106      Z:    -1.3248

  Electronic Dipole Moment: (a.u.)
     X:     0.4345      Y:    -3.9458      Z:     1.3584

  Dipole Moment: (a.u.)
     X:    -0.1273      Y:     0.1648      Z:     0.0336     Total:     0.2109

  Dipole Moment: (Debye)
     X:    -0.3237      Y:     0.4188      Z:     0.0853     Total:     0.5362


  Saving occupied orbitals to File 180.

*** tstop() called on cx1-3-4-4.cx1.hpc.ic.ac.uk at Tue Jul  5 17:01:34 2016
Module time:
	user time   =      14.56 seconds =       0.24 minutes
	system time =       0.19 seconds =       0.00 minutes
	total time  =         15 seconds =       0.25 minutes
Total time:
	user time   =      14.56 seconds =       0.24 minutes
	system time =       0.19 seconds =       0.00 minutes
	total time  =         15 seconds =       0.25 minutes


Properties will be evaluated at   0.000000,   0.000000,   0.000000 Bohr

Properties computed using the  density matrix

  Nuclear Dipole Moment: (a.u.)
     X:    -0.5619      Y:     4.1106      Z:    -1.3248

  Electronic Dipole Moment: (a.u.)
     X:     0.4345      Y:    -3.9458      Z:     1.3584

  Dipole Moment: (a.u.)
     X:    -0.1273      Y:     0.1648      Z:     0.0336     Total:     0.2109

  Dipole Moment: (Debye)
     X:    -0.3237      Y:     0.4188      Z:     0.0853     Total:     0.5362

  Quadrupole Moment: (Debye Ang)
    XX:   -56.6062     YY:   -55.1683     ZZ:   -50.0270
    XY:    -0.2399     XZ:     0.6232     YZ:     2.9292

  Traceless Quadrupole Moment: (Debye Ang)
    XX:    -2.6724     YY:    -1.2344     ZZ:     3.9068
    XY:    -0.2399     XZ:     0.6232     YZ:     2.9292

  Mulliken Charges: (a.u.)
   Center  Symbol    Alpha    Beta     Spin     Total
       1     H     0.26733  0.26733  0.00000  0.46534
       2     O     4.36002  4.36002  0.00000 -0.72003
       3     C     3.07222  3.07222  0.00000 -0.14443
       4     C     2.43182  2.43182  0.00000  1.13637
       5     C     2.43379  2.43379  0.00000  1.13243
       6     H     0.37090  0.37090  0.00000  0.25819
       7     F     4.67658  4.67658  0.00000 -0.35316
       8     F     4.67433  4.67433  0.00000 -0.34867
       9     F     4.67872  4.67872  0.00000 -0.35744
      10     F     4.67527  4.67527  0.00000 -0.35053
      11     F     4.67611  4.67611  0.00000 -0.35221
      12     F     4.68293  4.68293  0.00000 -0.36586

   Total alpha = 41.00000, Total beta = 41.00000, Total charge = -0.00000


*** PSI4 exiting successfully. Buy a developer a beer!
