    -----------------------------------------------------------------------
          Psi4: An Open-Source Ab Initio Electronic Structure Package
                              Psi4 (no tag) Driver

                          Git: Rev {detached?}  

    J. M. Turney, A. C. Simmonett, R. M. Parrish, E. G. Hohenstein,
    F. A. Evangelista, J. T. Fermann, B. J. Mintz, L. A. Burns, J. J. Wilke,
    M. L. Abrams, N. J. Russ, M. L. Leininger, C. L. Janssen, E. T. Seidl,
    W. D. Allen, H. F. Schaefer, R. A. King, E. F. Valeev, C. D. Sherrill,
    and T. D. Crawford, WIREs Comput. Mol. Sci. 2, 556-565 (2012)
    (doi: 10.1002/wcms.93)

                         Additional Contributions by
    A. E. DePrince, M. Saitow, U. Bozkaya, A. Yu. Sokolov
    -----------------------------------------------------------------------


    Psi4 started on: Tue Jul  5 16:37:28 2016

    Process ID:  22783
    PSI4DATADIR: /export131/home/mjharvey/miniconda3/share
    Memory level set to 256.000 MB

  ==> Input File <==

--------------------------------------------------------------------------
set {
	reference rhf
	basis 6-31G*
}


set_num_threads( 1 )
memory 2 gb

molecule MOL {
0 1

O	 -2.821601	 1.309235	 -0.001213
C	 -2.668563	 0.129746	 -0.000350
C	 -3.801572	 -0.864014	 -0.000442
O	 -1.481751	 -0.454642	 0.000584
H	 -4.417280	 -0.689587	 -0.874708
H	 -3.443784	 -1.883046	 -0.000565
H	 -4.417179	 -0.689832	 0.873954
C	 -0.334255	 0.388708	 0.000906
C	 0.891947	 -0.504646	 0.000751
H	 -0.365390	 1.025305	 -0.873475
H	 -0.365484	 1.024911	 0.875569
C	 1.379796	 -0.812780	 -1.416121
H	 0.653722	 -1.427999	 0.521431
H	 1.680550	 -0.018654	 0.568535
C	 2.616101	 -1.713556	 -1.437990
H	 0.580104	 -1.289049	 -1.980696
H	 1.606070	 0.117965	 -1.933419
C	 3.102524	 -2.022383	 -2.853223
H	 2.391628	 -2.644259	 -0.921773
H	 3.416974	 -1.238092	 -0.876202
H	 2.334251	 -2.529201	 -3.430203
H	 3.979098	 -2.662348	 -2.835939
H	 3.367619	 -1.112528	 -3.384163

	symmetry c1
}
set optking {
	frozen_dihedral = ("
		2 4 8 10,
		16 12 9 13,
		19 15 12 16,
		1 2 4 8
	")
}

ee = energy('scf')
oeprop('DIPOLE', 'QUADRUPOLE', 'MULLIKEN_CHARGES')
f=open( 'psi4out.xyz', 'w' )
f.write( "23  " )
f.write( str(ee) + "\n" )
f.write( MOL.save_string_xyz() )
f.close()
--------------------------------------------------------------------------

  Memory set to   2.000 GiB by Python script.

*** tstart() called on cx1-3-4-2.cx1.hpc.ic.ac.uk
*** at Tue Jul  5 16:37:29 2016


         ---------------------------------------------------------
                                   SCF
            by Justin Turney, Rob Parrish, and Andy Simmonett
                              RHF Reference
                        1 Threads,   2000 MiB Core
         ---------------------------------------------------------

  ==> Geometry <==

    Molecular point group: c1
    Full point group: C1

    Geometry (in Angstrom), charge = 0, multiplicity = 1:

       Center              X                  Y                   Z               Mass       
    ------------   -----------------  -----------------  -----------------  -----------------
           O         -2.456154749044     1.810728942369     0.635769429511    15.994914619560
           C         -2.303116749044     0.631239942369     0.636632429511    12.000000000000
           C         -3.436125749044    -0.362520057631     0.636540429511    12.000000000000
           O         -1.116304749044     0.046851942369     0.637566429511    15.994914619560
           H         -4.051833749044    -0.188093057631    -0.237725570489     1.007825032070
           H         -3.078337749044    -1.381552057631     0.636417429511     1.007825032070
           H         -4.051732749044    -0.188338057631     1.510936429511     1.007825032070
           C          0.031191250956     0.890201942369     0.637888429511    12.000000000000
           C          1.257393250956    -0.003152057631     0.637733429511    12.000000000000
           H          0.000056250956     1.526798942369    -0.236492570489     1.007825032070
           H         -0.000037749044     1.526404942369     1.512551429511     1.007825032070
           C          1.745242250956    -0.311286057631    -0.779138570489    12.000000000000
           H          1.019168250956    -0.926505057631     1.158413429511     1.007825032070
           H          2.045996250956     0.482839942369     1.205517429511     1.007825032070
           C          2.981547250956    -1.212062057631    -0.801007570489    12.000000000000
           H          0.945550250956    -0.787555057631    -1.343713570489     1.007825032070
           H          1.971516250956     0.619458942369    -1.296436570489     1.007825032070
           C          3.467970250956    -1.520889057631    -2.216240570489    12.000000000000
           H          2.757074250956    -2.142765057631    -0.284790570489     1.007825032070
           H          3.782420250956    -0.736598057631    -0.239219570489     1.007825032070
           H          2.699697250956    -2.027707057631    -2.793220570489     1.007825032070
           H          4.344544250956    -2.160854057631    -2.198956570489     1.007825032070
           H          3.733065250956    -0.611034057631    -2.747180570489     1.007825032070

  Running in c1 symmetry.

  Rotational constants: A =      0.13803  B =      0.01801  C =      0.01717 [cm^-1]
  Rotational constants: A =   4138.06188  B =    539.90584  C =    514.80899 [MHz]
  Nuclear repulsion =  455.680699446040819

  Charge       = 0
  Multiplicity = 1
  Electrons    = 72
  Nalpha       = 36
  Nbeta        = 36

  ==> Algorithm <==

  SCF Algorithm Type is DF.
  DIIS enabled.
  MOM disabled.
  Fractional occupation disabled.
  Guess Type is CORE.
  Energy threshold   = 1.00e-06
  Density threshold  = 1.00e-06
  Integral threshold = 0.00e+00

  ==> Primary Basis <==

  Basis Set: 6-31G*
    Number of shells: 82
    Number of basis function: 163
    Number of Cartesian functions: 163
    Spherical Harmonics?: false
    Max angular momentum: 2

  ==> Pre-Iterations <==

   -------------------------------------------------------
    Irrep   Nso     Nmo     Nalpha   Nbeta   Ndocc  Nsocc
   -------------------------------------------------------
     A        163     163       0       0       0       0
   -------------------------------------------------------
    Total     163     163      36      36      36       0
   -------------------------------------------------------

 OEINTS: Overlap, kinetic, potential, dipole, and quadrupole integrals
         stored in file 35.

  ==> Integral Setup <==

  ==> DFJK: Density-Fitted J/K Matrices <==

    J tasked:                  Yes
    K tasked:                  Yes
    wK tasked:                  No
    OpenMP threads:              1
    Integrals threads:           1
    Memory (MB):              1430
    Algorithm:                Core
    Integral Cache:           NONE
    Schwarz Cutoff:          1E-12
    Fitting Condition:       1E-12

   => Auxiliary Basis Set <=

  Basis Set: 
    Number of shells: 342
    Number of basis function: 1079
    Number of Cartesian functions: 1079
    Spherical Harmonics?: false
    Max angular momentum: 3

  Minimum eigenvalue in the overlap matrix is 3.2734874632E-03.
  Using Symmetric Orthogonalization.
  SCF Guess: Core (One-Electron) Hamiltonian.

  ==> Iterations <==

                           Total Energy        Delta E     RMS |[F,P]|

   @DF-RHF iter   1:  -280.43792359505420   -2.80438e+02   6.73350e-02 
   @DF-RHF iter   2:   -63.21250140520357    2.17225e+02   7.95473e-02 DIIS
   @DF-RHF iter   3:  -234.48721835959947   -1.71275e+02   6.95300e-02 DIIS
   @DF-RHF iter   4:  -299.83197505055051   -6.53448e+01   5.91418e-02 DIIS
   @DF-RHF iter   5:  -361.54483035898983   -6.17129e+01   5.03105e-02 DIIS
   @DF-RHF iter   6:  -419.32308102123892   -5.77783e+01   1.12919e-02 DIIS
   @DF-RHF iter   7:  -407.51998704562362    1.18031e+01   1.94422e-02 DIIS
   @DF-RHF iter   8:  -422.87983580446456   -1.53598e+01   2.62824e-03 DIIS
   @DF-RHF iter   9:  -422.96623202898451   -8.63962e-02   7.66337e-04 DIIS
   @DF-RHF iter  10:  -422.97341603835247   -7.18401e-03   3.76850e-04 DIIS
   @DF-RHF iter  11:  -422.97579557757678   -2.37954e-03   1.69611e-04 DIIS
   @DF-RHF iter  12:  -422.97629754008625   -5.01963e-04   7.91813e-05 DIIS
   @DF-RHF iter  13:  -422.97642609400856   -1.28554e-04   2.07037e-05 DIIS
   @DF-RHF iter  14:  -422.97643633632009   -1.02423e-05   4.49649e-06 DIIS
   @DF-RHF iter  15:  -422.97643681599249   -4.79672e-07   1.28649e-06 DIIS
   @DF-RHF iter  16:  -422.97643686359476   -4.76023e-08   4.26630e-07 DIIS

  ==> Post-Iterations <==

    Orbital Energies (a.u.)
    -----------------------

    Doubly Occupied:                                                      

       1A    -20.603317     2A    -20.540756     3A    -11.374132  
       4A    -11.280955     5A    -11.232720     6A    -11.223720  
       7A    -11.220291     8A    -11.219284     9A    -11.211695  
      10A     -1.468293    11A     -1.361049    12A     -1.092820  
      13A     -1.041524    14A     -1.002966    15A     -0.930037  
      16A     -0.842216    17A     -0.799623    18A     -0.781259  
      19A     -0.688166    20A     -0.681394    21A     -0.666967  
      22A     -0.643508    23A     -0.608397    24A     -0.583512  
      25A     -0.576974    26A     -0.574613    27A     -0.558513  
      28A     -0.534589    29A     -0.527506    30A     -0.504260  
      31A     -0.499806    32A     -0.474313    33A     -0.470855  
      34A     -0.461730    35A     -0.444068    36A     -0.436336  

    Virtual:                                                              

      37A      0.196722    38A      0.229860    39A      0.248158  
      40A      0.257882    41A      0.268570    42A      0.279499  
      43A      0.293446    44A      0.304753    45A      0.319196  
      46A      0.320619    47A      0.329267    48A      0.339631  
      49A      0.341122    50A      0.346766    51A      0.362375  
      52A      0.383259    53A      0.397794    54A      0.406591  
      55A      0.429977    56A      0.447106    57A      0.473569  
      58A      0.513638    59A      0.569727    60A      0.696507  
      61A      0.712827    62A      0.727468    63A      0.740696  
      64A      0.748880    65A      0.758204    66A      0.772763  
      67A      0.794953    68A      0.814436    69A      0.838376  
      70A      0.850328    71A      0.893320    72A      0.900660  
      73A      0.942780    74A      0.959846    75A      0.973820  
      76A      1.002533    77A      1.025095    78A      1.029887  
      79A      1.067687    80A      1.093400    81A      1.110719  
      82A      1.124130    83A      1.132482    84A      1.139305  
      85A      1.166490    86A      1.173885    87A      1.185114  
      88A      1.196201    89A      1.199173    90A      1.206057  
      91A      1.209902    92A      1.214507    93A      1.223059  
      94A      1.223611    95A      1.245061    96A      1.264123  
      97A      1.274510    98A      1.317475    99A      1.344441  
     100A      1.418201   101A      1.459578   102A      1.521873  
     103A      1.536914   104A      1.623968   105A      1.639422  
     106A      1.655844   107A      1.670653   108A      1.742085  
     109A      1.769241   110A      1.801792   111A      1.819877  
     112A      1.917508   113A      1.964442   114A      2.005722  
     115A      2.035988   116A      2.072553   117A      2.103104  
     118A      2.111099   119A      2.156329   120A      2.182961  
     121A      2.193799   122A      2.206189   123A      2.239502  
     124A      2.249073   125A      2.278807   126A      2.290550  
     127A      2.314222   128A      2.328837   129A      2.383938  
     130A      2.399014   131A      2.458637   132A      2.485258  
     133A      2.540017   134A      2.566366   135A      2.579321  
     136A      2.586234   137A      2.621707   138A      2.663516  
     139A      2.686336   140A      2.717444   141A      2.750550  
     142A      2.765356   143A      2.803476   144A      2.853607  
     145A      2.922250   146A      2.950632   147A      3.006191  
     148A      3.080916   149A      3.100860   150A      3.152388  
     151A      3.173596   152A      3.354959   153A      3.422349  
     154A      3.571859   155A      4.428190   156A      4.551377  
     157A      4.563653   158A      4.594289   159A      4.676030  
     160A      4.793325   161A      4.856274   162A      4.927382  
     163A      4.995126  

    Final Occupation by Irrep:
              A 
    DOCC [    36 ]

  Energy converged.

  @DF-RHF Final Energy:  -422.97643686359476

   => Energetics <=

    Nuclear Repulsion Energy =            455.6806994460408191
    One-Electron Energy =               -1478.9899916363285683
    Two-Electron Energy =                 600.3328553266943572
    DFT Exchange-Correlation Energy =       0.0000000000000000
    Empirical Dispersion Energy =           0.0000000000000000
    PCM Polarization Energy =               0.0000000000000000
    EFP Energy =                            0.0000000000000000
    Total Energy =                       -422.9764368635934488

    Alert: EFP and PCM quantities not currently incorporated into SCF psivars.

Properties will be evaluated at   0.000000,   0.000000,   0.000000 Bohr
  ==> Properties <==


Properties computed using the SCF density matrix

  Nuclear Dipole Moment: (a.u.)
     X:    11.3423      Y:    -6.5491      Z:    -5.0130

  Electronic Dipole Moment: (a.u.)
     X:   -10.9400      Y:     5.7844      Z:     5.0069

  Dipole Moment: (a.u.)
     X:     0.4023      Y:    -0.7647      Z:    -0.0061     Total:     0.8641

  Dipole Moment: (Debye)
     X:     1.0225      Y:    -1.9438      Z:    -0.0154     Total:     2.1964


  Saving occupied orbitals to File 180.

*** tstop() called on cx1-3-4-2.cx1.hpc.ic.ac.uk at Tue Jul  5 16:37:55 2016
Module time:
	user time   =      26.18 seconds =       0.44 minutes
	system time =       0.28 seconds =       0.00 minutes
	total time  =         26 seconds =       0.43 minutes
Total time:
	user time   =      26.18 seconds =       0.44 minutes
	system time =       0.28 seconds =       0.00 minutes
	total time  =         26 seconds =       0.43 minutes


Properties will be evaluated at   0.000000,   0.000000,   0.000000 Bohr

Properties computed using the  density matrix

  Nuclear Dipole Moment: (a.u.)
     X:    11.3423      Y:    -6.5491      Z:    -5.0130

  Electronic Dipole Moment: (a.u.)
     X:   -10.9400      Y:     5.7844      Z:     5.0069

  Dipole Moment: (a.u.)
     X:     0.4023      Y:    -0.7647      Z:    -0.0061     Total:     0.8641

  Dipole Moment: (Debye)
     X:     1.0225      Y:    -1.9438      Z:    -0.0154     Total:     2.1964

  Quadrupole Moment: (Debye Ang)
    XX:   -54.9767     YY:   -62.6320     ZZ:   -56.0654
    XY:     8.1309     XZ:     0.8125     YZ:    -1.2716

  Traceless Quadrupole Moment: (Debye Ang)
    XX:     2.9147     YY:    -4.7406     ZZ:     1.8259
    XY:     8.1309     XZ:     0.8125     YZ:    -1.2716

  Mulliken Charges: (a.u.)
   Center  Symbol    Alpha    Beta     Spin     Total
       1     O     4.28394  4.28394  0.00000 -0.56788
       2     C     2.61499  2.61499  0.00000  0.77002
       3     C     3.28764  3.28764  0.00000 -0.57527
       4     O     4.31064  4.31064  0.00000 -0.62127
       5     H     0.39744  0.39744  0.00000  0.20512
       6     H     0.40023  0.40023  0.00000  0.19953
       7     H     0.39741  0.39741  0.00000  0.20519
       8     C     3.00420  3.00420  0.00000 -0.00840
       9     C     3.16727  3.16727  0.00000 -0.33454
      10     H     0.40887  0.40887  0.00000  0.18225
      11     H     0.40821  0.40821  0.00000  0.18357
      12     C     3.15677  3.15677  0.00000 -0.31354
      13     H     0.40825  0.40825  0.00000  0.18351
      14     H     0.41702  0.41702  0.00000  0.16596
      15     C     3.15244  3.15244  0.00000 -0.30489
      16     H     0.41732  0.41732  0.00000  0.16536
      17     H     0.42240  0.42240  0.00000  0.15520
      18     C     3.23958  3.23958  0.00000 -0.47915
      19     H     0.42178  0.42178  0.00000  0.15644
      20     H     0.42275  0.42275  0.00000  0.15451
      21     H     0.42104  0.42104  0.00000  0.15792
      22     H     0.41855  0.41855  0.00000  0.16289
      23     H     0.42126  0.42126  0.00000  0.15747

   Total alpha = 36.00000, Total beta = 36.00000, Total charge = -0.00000


*** PSI4 exiting successfully. Buy a developer a beer!
