    -----------------------------------------------------------------------
          Psi4: An Open-Source Ab Initio Electronic Structure Package
                              Psi4 (no tag) Driver

                          Git: Rev {detached?}  

    J. M. Turney, A. C. Simmonett, R. M. Parrish, E. G. Hohenstein,
    F. A. Evangelista, J. T. Fermann, B. J. Mintz, L. A. Burns, J. J. Wilke,
    M. L. Abrams, N. J. Russ, M. L. Leininger, C. L. Janssen, E. T. Seidl,
    W. D. Allen, H. F. Schaefer, R. A. King, E. F. Valeev, C. D. Sherrill,
    and T. D. Crawford, WIREs Comput. Mol. Sci. 2, 556-565 (2012)
    (doi: 10.1002/wcms.93)

                         Additional Contributions by
    A. E. DePrince, M. Saitow, U. Bozkaya, A. Yu. Sokolov
    -----------------------------------------------------------------------


    Psi4 started on: Tue Jul  5 16:38:01 2016

    Process ID:  12244
    PSI4DATADIR: /export131/home/mjharvey/miniconda3/share
    Memory level set to 256.000 MB

  ==> Input File <==

--------------------------------------------------------------------------
set {
	reference rhf
	basis 6-31G*
}


set_num_threads( 1 )
memory 2 gb

molecule MOL {
0 1

O	 0.391030	 1.298905	 0.000133
C	 0.503002	 0.111612	 0.000005
C	 -0.702327	 -0.811998	 -0.000075
C	 1.863306	 -0.554493	 0.000030
C	 -1.087446	 -1.313136	 -1.386688
H	 -0.484656	 -1.645101	 0.665755
H	 -1.531107	 -0.279460	 0.462842
H	 -0.273037	 -1.864989	 -1.839915
H	 -1.951676	 -1.966323	 -1.325785
H	 -1.328767	 -0.487242	 -2.044626
H	 1.974395	 -1.189404	 -0.874166
H	 2.638695	 0.198920	 -0.000196
H	 1.974487	 -1.188655	 0.874727

	symmetry c1
}
ee = energy('scf')
oeprop('DIPOLE', 'QUADRUPOLE', 'MULLIKEN_CHARGES')
f=open( 'psi4out.xyz', 'w' )
f.write( "13  " )
f.write( str(ee) + "\n" )
f.write( MOL.save_string_xyz() )
f.close()
--------------------------------------------------------------------------

  Memory set to   2.000 GiB by Python script.

*** tstart() called on cx1-3-4-4.cx1.hpc.ic.ac.uk
*** at Tue Jul  5 16:38:01 2016


         ---------------------------------------------------------
                                   SCF
            by Justin Turney, Rob Parrish, and Andy Simmonett
                              RHF Reference
                        1 Threads,   2000 MiB Core
         ---------------------------------------------------------

  ==> Geometry <==

    Molecular point group: c1
    Full point group: C1

    Geometry (in Angstrom), charge = 0, multiplicity = 1:

       Center              X                  Y                   Z               Mass       
    ------------   -----------------  -----------------  -----------------  -----------------
           O          0.193976105145     1.556039371975     0.288123912762    15.994914619560
           C          0.305948105145     0.368746371975     0.287995912762    12.000000000000
           C         -0.899380894855    -0.554863628025     0.287915912762    12.000000000000
           C          1.666252105145    -0.297358628025     0.288020912762    12.000000000000
           C         -1.284499894855    -1.056001628025    -1.098697087238    12.000000000000
           H         -0.681709894855    -1.387966628025     0.953745912762     1.007825032070
           H         -1.728160894855    -0.022325628025     0.750832912762     1.007825032070
           H         -0.470090894855    -1.607854628025    -1.551924087238     1.007825032070
           H         -2.148729894855    -1.709188628025    -1.037794087238     1.007825032070
           H         -1.525820894855    -0.230107628025    -1.756635087238     1.007825032070
           H          1.777341105145    -0.932269628025    -0.586175087238     1.007825032070
           H          2.441641105145     0.456054371975     0.287794912762     1.007825032070
           H          1.777433105145    -0.931520628025     1.162717912762     1.007825032070

  Running in c1 symmetry.

  Rotational constants: A =      0.25884  B =      0.12564  C =      0.09955 [cm^-1]
  Rotational constants: A =   7759.75879  B =   3766.45226  C =   2984.36364 [MHz]
  Nuclear repulsion =  176.775951162682276

  Charge       = 0
  Multiplicity = 1
  Electrons    = 40
  Nalpha       = 20
  Nbeta        = 20

  ==> Algorithm <==

  SCF Algorithm Type is DF.
  DIIS enabled.
  MOM disabled.
  Fractional occupation disabled.
  Guess Type is CORE.
  Energy threshold   = 1.00e-06
  Density threshold  = 1.00e-06
  Integral threshold = 0.00e+00

  ==> Primary Basis <==

  Basis Set: 6-31G*
    Number of shells: 46
    Number of basis function: 91
    Number of Cartesian functions: 91
    Spherical Harmonics?: false
    Max angular momentum: 2

  ==> Pre-Iterations <==

   -------------------------------------------------------
    Irrep   Nso     Nmo     Nalpha   Nbeta   Ndocc  Nsocc
   -------------------------------------------------------
     A         91      91       0       0       0       0
   -------------------------------------------------------
    Total      91      91      20      20      20       0
   -------------------------------------------------------

 OEINTS: Overlap, kinetic, potential, dipole, and quadrupole integrals
         stored in file 35.

  ==> Integral Setup <==

  ==> DFJK: Density-Fitted J/K Matrices <==

    J tasked:                  Yes
    K tasked:                  Yes
    wK tasked:                  No
    OpenMP threads:              1
    Integrals threads:           1
    Memory (MB):              1430
    Algorithm:                Core
    Integral Cache:           NONE
    Schwarz Cutoff:          1E-12
    Fitting Condition:       1E-12

   => Auxiliary Basis Set <=

  Basis Set: 
    Number of shells: 192
    Number of basis function: 605
    Number of Cartesian functions: 605
    Spherical Harmonics?: false
    Max angular momentum: 3

  Minimum eigenvalue in the overlap matrix is 4.1847687291E-03.
  Using Symmetric Orthogonalization.
  SCF Guess: Core (One-Electron) Hamiltonian.

  ==> Iterations <==

                           Total Energy        Delta E     RMS |[F,P]|

   @DF-RHF iter   1:  -181.29758865735064   -1.81298e+02   8.38480e-02 
   @DF-RHF iter   2:  -169.24408505708530    1.20535e+01   6.27126e-02 DIIS
   @DF-RHF iter   3:  -203.41478120863084   -3.41707e+01   5.79110e-02 DIIS
   @DF-RHF iter   4:  -229.23387694578199   -2.58191e+01   1.91764e-02 DIIS
   @DF-RHF iter   5:  -230.87768655876059   -1.64381e+00   4.59818e-03 DIIS
   @DF-RHF iter   6:  -230.98230422577572   -1.04618e-01   1.28624e-03 DIIS
   @DF-RHF iter   7:  -230.99273940577356   -1.04352e-02   5.29560e-04 DIIS
   @DF-RHF iter   8:  -230.99407865934401   -1.33925e-03   1.72528e-04 DIIS
   @DF-RHF iter   9:  -230.99443531595986   -3.56657e-04   1.17707e-04 DIIS
   @DF-RHF iter  10:  -230.99453538807407   -1.00072e-04   3.28847e-05 DIIS
   @DF-RHF iter  11:  -230.99455669191249   -2.13038e-05   1.45327e-05 DIIS
   @DF-RHF iter  12:  -230.99456146286414   -4.77095e-06   5.08547e-06 DIIS
   @DF-RHF iter  13:  -230.99456211008462   -6.47220e-07   2.34857e-06 DIIS
   @DF-RHF iter  14:  -230.99456223486411   -1.24779e-07   8.46164e-07 DIIS

  ==> Post-Iterations <==

    Orbital Energies (a.u.)
    -----------------------

    Doubly Occupied:                                                      

       1A    -20.550142     2A    -11.325746     3A    -11.233095  
       4A    -11.229815     5A    -11.228389     6A     -1.395138  
       7A     -1.068597     8A     -0.996787     9A     -0.886224  
      10A     -0.733937    11A     -0.653474    12A     -0.647209  
      13A     -0.609511    14A     -0.593210    15A     -0.566231  
      16A     -0.542729    17A     -0.530973    18A     -0.498901  
      19A     -0.483499    20A     -0.399786  

    Virtual:                                                              

      21A      0.165598    22A      0.220880    23A      0.266393  
      24A      0.285068    25A      0.297191    26A      0.314756  
      27A      0.316966    28A      0.336607    29A      0.365026  
      30A      0.380358    31A      0.408294    32A      0.488345  
      33A      0.506297    34A      0.703752    35A      0.715175  
      36A      0.744087    37A      0.756859    38A      0.804016  
      39A      0.823512    40A      0.891217    41A      0.904511  
      42A      0.974904    43A      0.989592    44A      1.002538  
      45A      1.062776    46A      1.087022    47A      1.108088  
      48A      1.140953    49A      1.152302    50A      1.172553  
      51A      1.193036    52A      1.198438    53A      1.234837  
      54A      1.256033    55A      1.274916    56A      1.335156  
      57A      1.368057    58A      1.430694    59A      1.510055  
      60A      1.675723    61A      1.715419    62A      1.794189  
      63A      1.920546    64A      1.961332    65A      1.986697  
      66A      2.085174    67A      2.104677    68A      2.148558  
      69A      2.188467    70A      2.235752    71A      2.278969  
      72A      2.308769    73A      2.390467    74A      2.451655  
      75A      2.497631    76A      2.592862    77A      2.629735  
      78A      2.661251    79A      2.715709    80A      2.730684  
      81A      2.849795    82A      2.969863    83A      3.018964  
      84A      3.093979    85A      3.369618    86A      3.374566  
      87A      4.425639    88A      4.529933    89A      4.651108  
      90A      4.822191    91A      4.940820  

    Final Occupation by Irrep:
              A 
    DOCC [    20 ]

  Energy converged.

  @DF-RHF Final Energy:  -230.99456223486411

   => Energetics <=

    Nuclear Repulsion Energy =            176.7759511626822757
    One-Electron Energy =                -663.1942948487991316
    Two-Electron Energy =                 255.4237814512530917
    DFT Exchange-Correlation Energy =       0.0000000000000000
    Empirical Dispersion Energy =           0.0000000000000000
    PCM Polarization Energy =               0.0000000000000000
    EFP Energy =                            0.0000000000000000
    Total Energy =                       -230.9945622348637357

    Alert: EFP and PCM quantities not currently incorporated into SCF psivars.

Properties will be evaluated at   0.000000,   0.000000,   0.000000 Bohr
  ==> Properties <==


Properties computed using the SCF density matrix

  Nuclear Dipole Moment: (a.u.)
     X:    -0.5223      Y:    -5.9597      Z:    -1.6649

  Electronic Dipole Moment: (a.u.)
     X:     0.5756      Y:     4.7362      Z:     1.6128

  Dipole Moment: (a.u.)
     X:     0.0533      Y:    -1.2235      Z:    -0.0521     Total:     1.2258

  Dipole Moment: (Debye)
     X:     0.1355      Y:    -3.1098      Z:    -0.1324     Total:     3.1156


  Saving occupied orbitals to File 180.

*** tstop() called on cx1-3-4-4.cx1.hpc.ic.ac.uk at Tue Jul  5 16:38:06 2016
Module time:
	user time   =       4.04 seconds =       0.07 minutes
	system time =       0.04 seconds =       0.00 minutes
	total time  =          5 seconds =       0.08 minutes
Total time:
	user time   =       4.04 seconds =       0.07 minutes
	system time =       0.04 seconds =       0.00 minutes
	total time  =          5 seconds =       0.08 minutes


Properties will be evaluated at   0.000000,   0.000000,   0.000000 Bohr

Properties computed using the  density matrix

  Nuclear Dipole Moment: (a.u.)
     X:    -0.5223      Y:    -5.9597      Z:    -1.6649

  Electronic Dipole Moment: (a.u.)
     X:     0.5756      Y:     4.7362      Z:     1.6128

  Dipole Moment: (a.u.)
     X:     0.0533      Y:    -1.2235      Z:    -0.0521     Total:     1.2258

  Dipole Moment: (Debye)
     X:     0.1355      Y:    -3.1098      Z:    -0.1324     Total:     3.1156

  Quadrupole Moment: (Debye Ang)
    XX:   -29.8164     YY:   -36.8562     ZZ:   -30.8593
    XY:    -0.2796     XZ:     0.2164     YZ:    -0.9140

  Traceless Quadrupole Moment: (Debye Ang)
    XX:     2.6943     YY:    -4.3456     ZZ:     1.6513
    XY:    -0.2796     XZ:     0.2164     YZ:    -0.9140

  Mulliken Charges: (a.u.)
   Center  Symbol    Alpha    Beta     Spin     Total
       1     O     4.25846  4.25846  0.00000 -0.51693
       2     C     2.73833  2.73833  0.00000  0.52335
       3     C     3.20026  3.20026  0.00000 -0.40053
       4     C     3.28999  3.28999  0.00000 -0.57998
       5     C     3.24680  3.24680  0.00000 -0.49359
       6     H     0.41675  0.41675  0.00000  0.16649
       7     H     0.40021  0.40021  0.00000  0.19957
       8     H     0.41817  0.41817  0.00000  0.16366
       9     H     0.41062  0.41062  0.00000  0.17876
      10     H     0.40714  0.40714  0.00000  0.18573
      11     H     0.40838  0.40838  0.00000  0.18324
      12     H     0.39653  0.39653  0.00000  0.20694
      13     H     0.40835  0.40835  0.00000  0.18329

   Total alpha = 20.00000, Total beta = 20.00000, Total charge = -0.00000


*** PSI4 exiting successfully. Buy a developer a beer!
