    -----------------------------------------------------------------------
          Psi4: An Open-Source Ab Initio Electronic Structure Package
                              Psi4 (no tag) Driver

                          Git: Rev {detached?}  

    J. M. Turney, A. C. Simmonett, R. M. Parrish, E. G. Hohenstein,
    F. A. Evangelista, J. T. Fermann, B. J. Mintz, L. A. Burns, J. J. Wilke,
    M. L. Abrams, N. J. Russ, M. L. Leininger, C. L. Janssen, E. T. Seidl,
    W. D. Allen, H. F. Schaefer, R. A. King, E. F. Valeev, C. D. Sherrill,
    and T. D. Crawford, WIREs Comput. Mol. Sci. 2, 556-565 (2012)
    (doi: 10.1002/wcms.93)

                         Additional Contributions by
    A. E. DePrince, M. Saitow, U. Bozkaya, A. Yu. Sokolov
    -----------------------------------------------------------------------


    Psi4 started on: Tue Jul  5 16:40:58 2016

    Process ID:  18283
    PSI4DATADIR: /export131/home/mjharvey/miniconda3/share
    Memory level set to 256.000 MB

  ==> Input File <==

--------------------------------------------------------------------------
set {
	reference rhf
	basis 6-31G*
}


set_num_threads( 1 )
memory 2 gb

molecule MOL {
0 1

O	 -1.487788	 1.240889	 -0.102860
C	 -1.083277	 0.139568	 0.115197
C	 0.323299	 -0.082943	 0.642902
C	 -1.933017	 -1.084621	 -0.143902
C	 1.355627	 -0.005344	 -0.493127
H	 0.396251	 -1.044647	 1.143147
H	 0.528637	 0.693580	 1.371677
C	 1.293198	 -1.218580	 -1.419090
H	 1.195052	 0.900296	 -1.073906
H	 2.345178	 0.075953	 -0.055727
H	 2.034492	 -1.143048	 -2.208057
H	 0.317404	 -1.306752	 -1.887999
H	 1.482932	 -2.137215	 -0.872135
H	 -1.393885	 -1.806447	 -0.750509
H	 -2.850323	 -0.799888	 -0.640100
H	 -2.169004	 -1.571158	 0.798858

	symmetry c1
}
set optking {
	frozen_dihedral = ("
		4 2 3 5
	")
}

ee = energy('scf')
oeprop('DIPOLE', 'QUADRUPOLE', 'MULLIKEN_CHARGES')
f=open( 'psi4out.xyz', 'w' )
f.write( "16  " )
f.write( str(ee) + "\n" )
f.write( MOL.save_string_xyz() )
f.close()
--------------------------------------------------------------------------

  Memory set to   2.000 GiB by Python script.

*** tstart() called on cx1-3-15-3.cx1.hpc.ic.ac.uk
*** at Tue Jul  5 16:40:58 2016


         ---------------------------------------------------------
                                   SCF
            by Justin Turney, Rob Parrish, and Andy Simmonett
                              RHF Reference
                        1 Threads,   2000 MiB Core
         ---------------------------------------------------------

  ==> Geometry <==

    Molecular point group: c1
    Full point group: C1

    Geometry (in Angstrom), charge = 0, multiplicity = 1:

       Center              X                  Y                   Z               Mass       
    ------------   -----------------  -----------------  -----------------  -----------------
           O         -1.227247048665     1.419552615894     0.146101398051    15.994914619560
           C         -0.822736048665     0.318231615894     0.364158398051    12.000000000000
           C          0.583839951335     0.095720615894     0.891863398051    12.000000000000
           C         -1.672476048665    -0.905957384106     0.105059398051    12.000000000000
           C          1.616167951335     0.173319615894    -0.244165601949    12.000000000000
           H          0.656791951335    -0.865983384106     1.392108398051     1.007825032070
           H          0.789177951335     0.872243615894     1.620638398051     1.007825032070
           C          1.553738951335    -1.039916384106    -1.170128601949    12.000000000000
           H          1.455592951335     1.078959615894    -0.824944601949     1.007825032070
           H          2.605718951335     0.254616615894     0.193234398051     1.007825032070
           H          2.295032951335    -0.964384384106    -1.959095601949     1.007825032070
           H          0.577944951335    -1.128088384106    -1.639037601949     1.007825032070
           H          1.743472951335    -1.958551384106    -0.623173601949     1.007825032070
           H         -1.133344048665    -1.627783384106    -0.501547601949     1.007825032070
           H         -2.589782048665    -0.621224384106    -0.391138601949     1.007825032070
           H         -1.908463048665    -1.392494384106     1.047819398051     1.007825032070

  Running in c1 symmetry.

  Rotational constants: A =      0.17764  B =      0.08183  C =      0.06833 [cm^-1]
  Rotational constants: A =   5325.43396  B =   2453.07539  C =   2048.33806 [MHz]
  Nuclear repulsion =  242.695124511202948

  Charge       = 0
  Multiplicity = 1
  Electrons    = 48
  Nalpha       = 24
  Nbeta        = 24

  ==> Algorithm <==

  SCF Algorithm Type is DF.
  DIIS enabled.
  MOM disabled.
  Fractional occupation disabled.
  Guess Type is CORE.
  Energy threshold   = 1.00e-06
  Density threshold  = 1.00e-06
  Integral threshold = 0.00e+00

  ==> Primary Basis <==

  Basis Set: 6-31G*
    Number of shells: 56
    Number of basis function: 110
    Number of Cartesian functions: 110
    Spherical Harmonics?: false
    Max angular momentum: 2

  ==> Pre-Iterations <==

   -------------------------------------------------------
    Irrep   Nso     Nmo     Nalpha   Nbeta   Ndocc  Nsocc
   -------------------------------------------------------
     A        110     110       0       0       0       0
   -------------------------------------------------------
    Total     110     110      24      24      24       0
   -------------------------------------------------------

 OEINTS: Overlap, kinetic, potential, dipole, and quadrupole integrals
         stored in file 35.

  ==> Integral Setup <==

  ==> DFJK: Density-Fitted J/K Matrices <==

    J tasked:                  Yes
    K tasked:                  Yes
    wK tasked:                  No
    OpenMP threads:              1
    Integrals threads:           1
    Memory (MB):              1430
    Algorithm:                Core
    Integral Cache:           NONE
    Schwarz Cutoff:          1E-12
    Fitting Condition:       1E-12

   => Auxiliary Basis Set <=

  Basis Set: 
    Number of shells: 234
    Number of basis function: 736
    Number of Cartesian functions: 736
    Spherical Harmonics?: false
    Max angular momentum: 3

  Minimum eigenvalue in the overlap matrix is 3.7254137960E-03.
  Using Symmetric Orthogonalization.
  SCF Guess: Core (One-Electron) Hamiltonian.

  ==> Iterations <==

                           Total Energy        Delta E     RMS |[F,P]|

   @DF-RHF iter   1:  -208.81554700764218   -2.08816e+02   7.41437e-02 
   @DF-RHF iter   2:  -187.13165573970258    2.16839e+01   5.90470e-02 DIIS
   @DF-RHF iter   3:  -231.89797650418512   -4.47663e+01   5.35797e-02 DIIS
   @DF-RHF iter   4:  -269.30559082681350   -3.74076e+01   1.04238e-02 DIIS
   @DF-RHF iter   5:  -269.91096610448994   -6.05375e-01   4.82149e-03 DIIS
   @DF-RHF iter   6:  -270.01573095075719   -1.04765e-01   1.30629e-03 DIIS
   @DF-RHF iter   7:  -270.02473894066691   -9.00799e-03   5.50983e-04 DIIS
   @DF-RHF iter   8:  -270.02648009065354   -1.74115e-03   2.30218e-04 DIIS
   @DF-RHF iter   9:  -270.02693152132383   -4.51431e-04   6.14436e-05 DIIS
   @DF-RHF iter  10:  -270.02696559935725   -3.40780e-05   1.36842e-05 DIIS
   @DF-RHF iter  11:  -270.02696807234906   -2.47299e-06   4.44771e-06 DIIS
   @DF-RHF iter  12:  -270.02696850647101   -4.34122e-07   1.90627e-06 DIIS
   @DF-RHF iter  13:  -270.02696862325956   -1.16789e-07   9.19718e-07 DIIS

  ==> Post-Iterations <==

    Orbital Energies (a.u.)
    -----------------------

    Doubly Occupied:                                                      

       1A    -20.548247     2A    -11.324839     3A    -11.232565  
       4A    -11.229696     5A    -11.227505     6A    -11.221107  
       7A     -1.393924     8A     -1.084650     9A     -1.009992  
      10A     -0.952923    11A     -0.831872    12A     -0.731808  
      13A     -0.661939    14A     -0.644211    15A     -0.620267  
      16A     -0.601418    17A     -0.579264    18A     -0.556933  
      19A     -0.551424    20A     -0.517506    21A     -0.493129  
      22A     -0.488539    23A     -0.468870    24A     -0.398428  

    Virtual:                                                              

      25A      0.164231    26A      0.226679    27A      0.262834  
      28A      0.271882    29A      0.287146    30A      0.301982  
      31A      0.316532    32A      0.324871    33A      0.327009  
      34A      0.337448    35A      0.364334    36A      0.389326  
      37A      0.409029    38A      0.446042    39A      0.488125  
      40A      0.510049    41A      0.687445    42A      0.722735  
      43A      0.736937    44A      0.748880    45A      0.796002  
      46A      0.823297    47A      0.861739    48A      0.886042  
      49A      0.895413    50A      0.912979    51A      0.952292  
      52A      0.977790    53A      1.008574    54A      1.041529  
      55A      1.099030    56A      1.113923    57A      1.127382  
      58A      1.149950    59A      1.160529    60A      1.183626  
      61A      1.197113    62A      1.204918    63A      1.214125  
      64A      1.232883    65A      1.253842    66A      1.270569  
      67A      1.335026    68A      1.340096    69A      1.382353  
      70A      1.422062    71A      1.474361    72A      1.638836  
      73A      1.714236    74A      1.767134    75A      1.787284  
      76A      1.848639    77A      1.909149    78A      2.008767  
      79A      2.081521    80A      2.104775    81A      2.107527  
      82A      2.159784    83A      2.172702    84A      2.244363  
      85A      2.249744    86A      2.281823    87A      2.350724  
      88A      2.395543    89A      2.423604    90A      2.493831  
      91A      2.523901    92A      2.596023    93A      2.642415  
      94A      2.672177    95A      2.692365    96A      2.740524  
      97A      2.802449    98A      2.843981    99A      2.893447  
     100A      3.018127   101A      3.047325   102A      3.107008  
     103A      3.374760   104A      3.377107   105A      4.455514  
     106A      4.532545   107A      4.616276   108A      4.766886  
     109A      4.892552   110A      4.986433  

    Final Occupation by Irrep:
              A 
    DOCC [    24 ]

  Energy converged.

  @DF-RHF Final Energy:  -270.02696862325956

   => Energetics <=

    Nuclear Repulsion Energy =            242.6951245112029483
    One-Electron Energy =                -846.7019447927215197
    Two-Electron Energy =                 333.9798516582585535
    DFT Exchange-Correlation Energy =       0.0000000000000000
    Empirical Dispersion Energy =           0.0000000000000000
    PCM Polarization Energy =               0.0000000000000000
    EFP Energy =                            0.0000000000000000
    Total Energy =                       -270.0269686232600179

    Alert: EFP and PCM quantities not currently incorporated into SCF psivars.

Properties will be evaluated at   0.000000,   0.000000,   0.000000 Bohr
  ==> Properties <==


Properties computed using the SCF density matrix

  Nuclear Dipole Moment: (a.u.)
     X:     4.2054      Y:    -5.9486      Z:    -1.5791

  Electronic Dipole Moment: (a.u.)
     X:    -3.6844      Y:     4.8748      Z:     1.7455

  Dipole Moment: (a.u.)
     X:     0.5210      Y:    -1.0739      Z:     0.1665     Total:     1.2051

  Dipole Moment: (Debye)
     X:     1.3242      Y:    -2.7295      Z:     0.4231     Total:     3.0631


  Saving occupied orbitals to File 180.

*** tstop() called on cx1-3-15-3.cx1.hpc.ic.ac.uk at Tue Jul  5 16:41:05 2016
Module time:
	user time   =       6.45 seconds =       0.11 minutes
	system time =       0.04 seconds =       0.00 minutes
	total time  =          7 seconds =       0.12 minutes
Total time:
	user time   =       6.45 seconds =       0.11 minutes
	system time =       0.04 seconds =       0.00 minutes
	total time  =          7 seconds =       0.12 minutes


Properties will be evaluated at   0.000000,   0.000000,   0.000000 Bohr

Properties computed using the  density matrix

  Nuclear Dipole Moment: (a.u.)
     X:     4.2054      Y:    -5.9486      Z:    -1.5791

  Electronic Dipole Moment: (a.u.)
     X:    -3.6844      Y:     4.8748      Z:     1.7455

  Dipole Moment: (a.u.)
     X:     0.5210      Y:    -1.0739      Z:     0.1665     Total:     1.2051

  Dipole Moment: (Debye)
     X:     1.3242      Y:    -2.7295      Z:     0.4231     Total:     3.0631

  Quadrupole Moment: (Debye Ang)
    XX:   -38.7995     YY:   -42.6849     ZZ:   -37.2164
    XY:     4.2485     XZ:    -0.2284     YZ:    -0.3669

  Traceless Quadrupole Moment: (Debye Ang)
    XX:     0.7675     YY:    -3.1180     ZZ:     2.3505
    XY:     4.2485     XZ:    -0.2284     YZ:    -0.3669

  Mulliken Charges: (a.u.)
   Center  Symbol    Alpha    Beta     Spin     Total
       1     O     4.26220  4.26220  0.00000 -0.52440
       2     C     2.73885  2.73885  0.00000  0.52230
       3     C     3.20057  3.20057  0.00000 -0.40113
       4     C     3.29039  3.29039  0.00000 -0.58079
       5     C     3.16158  3.16158  0.00000 -0.32316
       6     H     0.41682  0.41682  0.00000  0.16636
       7     H     0.39932  0.39932  0.00000  0.20137
       8     C     3.24533  3.24533  0.00000 -0.49066
       9     H     0.40552  0.40552  0.00000  0.18895
      10     H     0.41346  0.41346  0.00000  0.17308
      11     H     0.41359  0.41359  0.00000  0.17281
      12     H     0.41969  0.41969  0.00000  0.16062
      13     H     0.42062  0.42062  0.00000  0.15875
      14     H     0.40753  0.40753  0.00000  0.18494
      15     H     0.39750  0.39750  0.00000  0.20499
      16     H     0.40701  0.40701  0.00000  0.18597

   Total alpha = 24.00000, Total beta = 24.00000, Total charge =  0.00000


*** PSI4 exiting successfully. Buy a developer a beer!
