
    -----------------------------------------------------------------------
          Psi4: An Open-Source Ab Initio Electronic Structure Package
                               Psi4 1.1 release

                         Git: Rev {HEAD} add49b9 


    R. M. Parrish, L. A. Burns, D. G. A. Smith, A. C. Simmonett,
    A. E. DePrince III, E. G. Hohenstein, U. Bozkaya, A. Yu. Sokolov,
    R. Di Remigio, R. M. Richard, J. F. Gonthier, A. M. James,
    H. R. McAlexander, A. Kumar, M. Saitow, X. Wang, B. P. Pritchard,
    P. Verma, H. F. Schaefer III, K. Patkowski, R. A. King, E. F. Valeev,
    F. A. Evangelista, J. M. Turney, T. D. Crawford, and C. D. Sherrill,
    J. Chem. Theory Comput. in press (2017).
    (doi: 10.1021/acs.jctc.7b00174)

    -----------------------------------------------------------------------


    Psi4 started on: Tuesday, 12 December 2017 11:17AM

    Process ID:  26845
    PSIDATADIR: /shared/raimis/opt/miniconda/envs/htmd/share/psi4
    Memory:     500.0 MiB
    Threads:    1
    
  ==> Input File <==

--------------------------------------------------------------------------
set_num_threads(1)
set_memory(4203741184)

set { reference rks }
set { basis cc-pVDZ }

molecule MOL {
    0 1
    noreorient
    nocom
    symmetry c1
    O    1.050400   0.042900  -0.048100
    C    2.474100   0.047400  -0.029000
    C    3.002600  -1.068900  -0.932000
    N    3.424834  -0.567230  -2.238731
    H    0.760400   0.728400   0.578000
    H    2.809900  -0.097900   1.003200
    H    2.817400   1.026800  -0.378600
    H    2.231713  -1.837328  -1.062343
    H    3.847932  -1.563003  -0.439728
    H    2.612009  -0.216166  -2.744253
    H    3.780599  -1.347790  -2.790462
}

set optking { frozen_dihedral = (" 1 2 3 4 ") }

energy, wfn = energy('B3LYP-D3', return_wfn=True)

import os
os.chdir(os.environ['HTMD_PSI4_WORKDIR'])

oeprop(wfn, 'DIPOLE', 'QUADRUPOLE', 'MULLIKEN_CHARGES')

with open('psi4out.xyz', 'w') as f:
    f.write('11 ' )
    f.write('%.12f\n' % energy)
    f.write(MOL.save_string_xyz())
--------------------------------------------------------------------------
  Threads set to 1 by Python driver.

  Memory set to   3.915 GiB by Python driver.

*** tstart() called on computer06
*** at Tue Dec 12 11:17:28 2017

   => Loading Basis Set <=

    Name: CC-PVDZ
    Role: ORBITAL
    Keyword: BASIS
    atoms 1    entry O          line   190 file /shared/raimis/opt/miniconda/envs/htmd/share/psi4/basis/cc-pvdz.gbs 
    atoms 2-3  entry C          line   130 file /shared/raimis/opt/miniconda/envs/htmd/share/psi4/basis/cc-pvdz.gbs 
    atoms 4    entry N          line   160 file /shared/raimis/opt/miniconda/envs/htmd/share/psi4/basis/cc-pvdz.gbs 
    atoms 5-11 entry H          line    20 file /shared/raimis/opt/miniconda/envs/htmd/share/psi4/basis/cc-pvdz.gbs 


         ---------------------------------------------------------
                                   SCF
            by Justin Turney, Rob Parrish, and Andy Simmonett
                              RKS Reference
                        1 Threads,   4009 MiB Core
         ---------------------------------------------------------

  ==> Geometry <==

    Molecular point group: c1
    Full point group: C1

    Geometry (in Angstrom), charge = 0, multiplicity = 1:

       Center              X                  Y                   Z               Mass       
    ------------   -----------------  -----------------  -----------------  -----------------
           O          1.050400000000     0.042900000000    -0.048100000000    15.994914619560
           C          2.474100000000     0.047400000000    -0.029000000000    12.000000000000
           C          3.002600000000    -1.068900000000    -0.932000000000    12.000000000000
           N          3.424834000000    -0.567230000000    -2.238731000000    14.003074004780
           H          0.760400000000     0.728400000000     0.578000000000     1.007825032070
           H          2.809900000000    -0.097900000000     1.003200000000     1.007825032070
           H          2.817400000000     1.026800000000    -0.378600000000     1.007825032070
           H          2.231713000000    -1.837328000000    -1.062343000000     1.007825032070
           H          3.847932000000    -1.563003000000    -0.439728000000     1.007825032070
           H          2.612009000000    -0.216166000000    -2.744253000000     1.007825032070
           H          3.780599000000    -1.347790000000    -2.790462000000     1.007825032070

  Running in c1 symmetry.

  Rotational constants: A =      0.38362  B =      0.03270  C =      0.03144 [cm^-1]
  Rotational constants: A =  11500.59280  B =    980.35115  C =    942.46945 [MHz]
  Nuclear repulsion =  131.622839286510072

  Charge       = 0
  Multiplicity = 1
  Electrons    = 34
  Nalpha       = 17
  Nbeta        = 17

  ==> Algorithm <==

  SCF Algorithm Type is DF.
  DIIS enabled.
  MOM disabled.
  Fractional occupation disabled.
  Guess Type is SAD.
  Energy threshold   = 1.00e-06
  Density threshold  = 1.00e-06
  Integral threshold = 0.00e+00

  ==> Primary Basis <==

  Basis Set: CC-PVDZ
    Blend: CC-PVDZ
    Number of shells: 45
    Number of basis function: 91
    Number of Cartesian functions: 95
    Spherical Harmonics?: true
    Max angular momentum: 2

  ==> DFT Potential <==

   => B3LYP Composite Functional <= 

    B3LYP Hybrid-GGA Exchange-Correlation Functional (VWN1-RPA)

    P.J. Stephens et. al., J. Phys. Chem., 98, 11623-11627, 1994

    Points   =           5000
    Deriv    =              1
    GGA      =           TRUE
    Meta     =          FALSE

    X_LRC        =          FALSE
    X_Hybrid     =           TRUE
    X_Alpha      =   2.000000E-01
    X_Omega      =   0.000000E+00
    C_LRC        =          FALSE
    C_Hybrid     =          FALSE
    C_Alpha      =   0.000000E+00
    C_Omega      =   0.000000E+00

   => Exchange Functionals <=

    0.8000    B3_X
    0.2000      HF 

   => Correlation Functionals <=

    0.1900 VWN3RPA_C
    0.8100   LYP_C

   => Molecular Quadrature <=

    Radial Scheme    =       TREUTLER
    Pruning Scheme   =           FLAT
    Nuclear Scheme   =       TREUTLER

    BS radius alpha  =              1
    Pruning alpha    =              1
    Radial Points    =             75
    Spherical Points =            302
    Total Points     =         245109
    Total Blocks     =            225
    Max Points       =           4752
    Max Functions    =             91

   => -D3ZERO: Empirical Dispersion <=

    Grimme's -D3 (zero-damping) Dispersion Correction
    Grimme S.; Antony J.; Ehrlich S.; Krieg H. (2010), J. Chem. Phys., 132: 154104

        S6 =   1.000000E+00
        S8 =   1.703000E+00
       SR6 =   1.261000E+00
    ALPHA6 =   1.400000E+01

   => Loading Basis Set <=

    Name: (CC-PVDZ AUX)
    Role: JKFIT
    Keyword: DF_BASIS_SCF
    atoms 1    entry O          line   220 file /shared/raimis/opt/miniconda/envs/htmd/share/psi4/basis/cc-pvdz-jkfit.gbs 
    atoms 2-3  entry C          line   120 file /shared/raimis/opt/miniconda/envs/htmd/share/psi4/basis/cc-pvdz-jkfit.gbs 
    atoms 4    entry N          line   170 file /shared/raimis/opt/miniconda/envs/htmd/share/psi4/basis/cc-pvdz-jkfit.gbs 
    atoms 5-11 entry H          line    50 file /shared/raimis/opt/miniconda/envs/htmd/share/psi4/basis/cc-pvdz-jkfit.gbs 

  ==> Pre-Iterations <==

   -------------------------------------------------------
    Irrep   Nso     Nmo     Nalpha   Nbeta   Ndocc  Nsocc
   -------------------------------------------------------
     A         91      91       0       0       0       0
   -------------------------------------------------------
    Total      91      91      17      17      17       0
   -------------------------------------------------------

  ==> Integral Setup <==

  ==> DFJK: Density-Fitted J/K Matrices <==

    J tasked:                  Yes
    K tasked:                  Yes
    wK tasked:                  No
    OpenMP threads:              1
    Integrals threads:           1
    Memory (MB):              3006
    Algorithm:                Core
    Integral Cache:           NONE
    Schwarz Cutoff:          1E-12
    Fitting Condition:       1E-12

   => Auxiliary Basis Set <=

  Basis Set: (CC-PVDZ AUX)
    Blend: CC-PVDZ-JKFIT
    Number of shells: 159
    Number of basis function: 441
    Number of Cartesian functions: 499
    Spherical Harmonics?: true
    Max angular momentum: 3

  Minimum eigenvalue in the overlap matrix is 4.7562180971E-03.
  Using Symmetric Orthogonalization.

  SCF Guess: Superposition of Atomic Densities via on-the-fly atomic UHF.

  ==> Iterations <==

                           Total Energy        Delta E     RMS |[F,P]|

   @DF-RKS iter   0:  -210.92456534107106   -2.10925e+02   3.73004e-02 
   @DF-RKS iter   1:  -210.24702484482418    6.77540e-01   6.31518e-03 
   @DF-RKS iter   2:  -210.12477000729530    1.22255e-01   8.91154e-03 DIIS
   @DF-RKS iter   3:  -210.38753492708335   -2.62765e-01   6.32466e-04 DIIS
   @DF-RKS iter   4:  -210.38860057742275   -1.06565e-03   3.35327e-04 DIIS
   @DF-RKS iter   5:  -210.38900754316973   -4.06966e-04   5.84828e-05 DIIS
   @DF-RKS iter   6:  -210.38901967150917   -1.21283e-05   1.50093e-05 DIIS
   @DF-RKS iter   7:  -210.38902040795688   -7.36448e-07   4.98628e-06 DIIS
   @DF-RKS iter   8:  -210.38902049884399   -9.08871e-08   6.54993e-07 DIIS

  ==> Post-Iterations <==

    Orbital Energies (a.u.)
    -----------------------

    Doubly Occupied:                                                      

       1A    -19.125532     2A    -14.300241     3A    -10.221790  
       4A    -10.201120     5A     -1.008692     6A     -0.872970  
       7A     -0.712795     8A     -0.594985     9A     -0.511099  
      10A     -0.481674    11A     -0.450254    12A     -0.407635  
      13A     -0.391637    14A     -0.363732    15A     -0.324219  
      16A     -0.260147    17A     -0.226965  

    Virtual:                                                              

      18A      0.051474    19A      0.069648    20A      0.098558  
      21A      0.122681    22A      0.132491    23A      0.144202  
      24A      0.159044    25A      0.200515    26A      0.227658  
      27A      0.268687    28A      0.449504    29A      0.480966  
      30A      0.491978    31A      0.506745    32A      0.528791  
      33A      0.578000    34A      0.604737    35A      0.614262  
      36A      0.641783    37A      0.655062    38A      0.674492  
      39A      0.696454    40A      0.706397    41A      0.789567  
      42A      0.823793    43A      0.842930    44A      0.917564  
      45A      0.947530    46A      0.991013    47A      1.010491  
      48A      1.058778    49A      1.188152    50A      1.203855  
      51A      1.239789    52A      1.284003    53A      1.347991  
      54A      1.373823    55A      1.433948    56A      1.467303  
      57A      1.538026    58A      1.568106    59A      1.595994  
      60A      1.612994    61A      1.622394    62A      1.659915  
      63A      1.692749    64A      1.742049    65A      1.769138  
      66A      1.815395    67A      1.859994    68A      1.897046  
      69A      1.925521    70A      1.967199    71A      1.979818  
      72A      1.996800    73A      2.045123    74A      2.104541  
      75A      2.167474    76A      2.254527    77A      2.272832  
      78A      2.387290    79A      2.391027    80A      2.449828  
      81A      2.465650    82A      2.522046    83A      2.613351  
      84A      2.674165    85A      2.817495    86A      2.966023  
      87A      3.017182    88A      3.046416    89A      3.105360  
      90A      3.196739    91A      3.693858  

    Final Occupation by Irrep:
              A 
    DOCC [    17 ]

  Energy converged.

  @DF-RKS Final Energy:  -210.38902049884399

   => Energetics <=

    Nuclear Repulsion Energy =            131.6228392865100716
    One-Electron Energy =                -546.2287894455926107
    Two-Electron Energy =                 227.7111199307210541
    DFT Exchange-Correlation Energy =     -23.4893619404824605
    Empirical Dispersion Energy =          -0.0048283300000000
    PCM Polarization Energy =               0.0000000000000000
    EFP Energy =                            0.0000000000000000
    Total Energy =                       -210.3890204988439905



Properties will be evaluated at   0.000000,   0.000000,   0.000000 Bohr

Properties computed using the SCF density matrix

  Nuclear Dipole Moment: (a.u.)
     X:   158.9207      Y:   -24.6862      Z:   -52.2625

  Electronic Dipole Moment: (a.u.)
     X:  -158.9484      Y:    24.6893      Z:    52.4650

  Dipole Moment: (a.u.)
     X:    -0.0278      Y:     0.0030      Z:     0.2026     Total:     0.2045

  Dipole Moment: (Debye)
     X:    -0.0706      Y:     0.0077      Z:     0.5149     Total:     0.5198


*** tstop() called on computer06 at Tue Dec 12 11:17:54 2017
Module time:
	user time   =      23.32 seconds =       0.39 minutes
	system time =       0.22 seconds =       0.00 minutes
	total time  =         26 seconds =       0.43 minutes
Total time:
	user time   =      23.32 seconds =       0.39 minutes
	system time =       0.22 seconds =       0.00 minutes
	total time  =         26 seconds =       0.43 minutes


Properties will be evaluated at   0.000000,   0.000000,   0.000000 Bohr

Properties computed using the  density matrix

  Nuclear Dipole Moment: (a.u.)
     X:   158.9207      Y:   -24.6862      Z:   -52.2625

  Electronic Dipole Moment: (a.u.)
     X:  -158.9484      Y:    24.6893      Z:    52.4650

  Dipole Moment: (a.u.)
     X:    -0.0278      Y:     0.0030      Z:     0.2026     Total:     0.2045

  Dipole Moment: (Debye)
     X:    -0.0706      Y:     0.0077      Z:     0.5149     Total:     0.5198

  Quadrupole Moment: (Debye Ang)
    XX:   -28.3878     YY:   -23.3083     ZZ:   -22.3227
    XY:    -3.5531     XZ:     1.3379     YZ:     3.4363

  Traceless Quadrupole Moment: (Debye Ang)
    XX:    -3.7149     YY:     1.3646     ZZ:     2.3502
    XY:    -3.5531     XZ:     1.3379     YZ:     3.4363

  Mulliken Charges: (a.u.)
   Center  Symbol    Alpha    Beta     Spin     Total
       1     O     4.14188  4.14188  0.00000 -0.28377
       2     C     2.92951  2.92951  0.00000  0.14098
       3     C     2.97847  2.97847  0.00000  0.04307
       4     N     3.59301  3.59301  0.00000 -0.18603
       5     H     0.43153  0.43153  0.00000  0.13693
       6     H     0.50345  0.50345  0.00000 -0.00691
       7     H     0.49948  0.49948  0.00000  0.00103
       8     H     0.49761  0.49761  0.00000  0.00478
       9     H     0.49551  0.49551  0.00000  0.00899
      10     H     0.46296  0.46296  0.00000  0.07407
      11     H     0.46657  0.46657  0.00000  0.06686

   Total alpha = 17.00000, Total beta = 17.00000, Total charge =  0.00000


*** Psi4 exiting successfully. Buy a developer a beer!
