
    -----------------------------------------------------------------------
          Psi4: An Open-Source Ab Initio Electronic Structure Package
                               Psi4 1.1 release

                         Git: Rev {HEAD} add49b9 


    R. M. Parrish, L. A. Burns, D. G. A. Smith, A. C. Simmonett,
    A. E. DePrince III, E. G. Hohenstein, U. Bozkaya, A. Yu. Sokolov,
    R. Di Remigio, R. M. Richard, J. F. Gonthier, A. M. James,
    H. R. McAlexander, A. Kumar, M. Saitow, X. Wang, B. P. Pritchard,
    P. Verma, H. F. Schaefer III, K. Patkowski, R. A. King, E. F. Valeev,
    F. A. Evangelista, J. M. Turney, T. D. Crawford, and C. D. Sherrill,
    J. Chem. Theory Comput. in press (2017).
    (doi: 10.1021/acs.jctc.7b00174)

    -----------------------------------------------------------------------


    Psi4 started on: Tuesday, 12 December 2017 12:40PM

    Process ID:   5297
    PSIDATADIR: /shared/raimis/opt/miniconda/envs/htmd/share/psi4
    Memory:     500.0 MiB
    Threads:    1
    
  ==> Input File <==

--------------------------------------------------------------------------
set_num_threads(1)
set_memory(4203741184)

set { reference rks }
set { basis cc-pVDZ }

molecule MOL {
    0 1
    noreorient
    nocom
    symmetry c1
    O    1.014300  -0.002300   0.060500
    O    2.462400  -0.107500  -0.002400
    H    0.821200  -0.823600  -0.430600
    H    2.521147  -0.267375  -0.963558
}

set optking { frozen_dihedral = (" 3 1 2 4 ") }

energy, wfn = energy('B3LYP-D3', return_wfn=True)

import os
os.chdir(os.environ['HTMD_PSI4_WORKDIR'])

oeprop(wfn, 'DIPOLE', 'QUADRUPOLE', 'MULLIKEN_CHARGES')

with open('psi4out.xyz', 'w') as f:
    f.write('4 ' )
    f.write('%.12f\n' % energy)
    f.write(MOL.save_string_xyz())
--------------------------------------------------------------------------
  Threads set to 1 by Python driver.

  Memory set to   3.915 GiB by Python driver.

*** tstart() called on computer06
*** at Tue Dec 12 12:40:28 2017

   => Loading Basis Set <=

    Name: CC-PVDZ
    Role: ORBITAL
    Keyword: BASIS
    atoms 1-2 entry O          line   190 file /shared/raimis/opt/miniconda/envs/htmd/share/psi4/basis/cc-pvdz.gbs 
    atoms 3-4 entry H          line    20 file /shared/raimis/opt/miniconda/envs/htmd/share/psi4/basis/cc-pvdz.gbs 


         ---------------------------------------------------------
                                   SCF
            by Justin Turney, Rob Parrish, and Andy Simmonett
                              RKS Reference
                        1 Threads,   4009 MiB Core
         ---------------------------------------------------------

  ==> Geometry <==

    Molecular point group: c1
    Full point group: C1

    Geometry (in Angstrom), charge = 0, multiplicity = 1:

       Center              X                  Y                   Z               Mass       
    ------------   -----------------  -----------------  -----------------  -----------------
           O          1.014300000000    -0.002300000000     0.060500000000    15.994914619560
           O          2.462400000000    -0.107500000000    -0.002400000000    15.994914619560
           H          0.821200000000    -0.823600000000    -0.430600000000     1.007825032070
           H          2.521147000000    -0.267375000000    -0.963558000000     1.007825032070

  Running in c1 symmetry.

  Rotational constants: A =      9.23444  B =      0.13914  C =      0.13782 [cm^-1]
  Rotational constants: A = 276841.61823  B =   4171.33630  C =   4131.85328 [MHz]
  Nuclear repulsion =   36.859929626145501

  Charge       = 0
  Multiplicity = 1
  Electrons    = 18
  Nalpha       = 9
  Nbeta        = 9

  ==> Algorithm <==

  SCF Algorithm Type is DF.
  DIIS enabled.
  MOM disabled.
  Fractional occupation disabled.
  Guess Type is SAD.
  Energy threshold   = 1.00e-06
  Density threshold  = 1.00e-06
  Integral threshold = 0.00e+00

  ==> Primary Basis <==

  Basis Set: CC-PVDZ
    Blend: CC-PVDZ
    Number of shells: 18
    Number of basis function: 38
    Number of Cartesian functions: 40
    Spherical Harmonics?: true
    Max angular momentum: 2

  ==> DFT Potential <==

   => B3LYP Composite Functional <= 

    B3LYP Hybrid-GGA Exchange-Correlation Functional (VWN1-RPA)

    P.J. Stephens et. al., J. Phys. Chem., 98, 11623-11627, 1994

    Points   =           5000
    Deriv    =              1
    GGA      =           TRUE
    Meta     =          FALSE

    X_LRC        =          FALSE
    X_Hybrid     =           TRUE
    X_Alpha      =   2.000000E-01
    X_Omega      =   0.000000E+00
    C_LRC        =          FALSE
    C_Hybrid     =          FALSE
    C_Alpha      =   0.000000E+00
    C_Omega      =   0.000000E+00

   => Exchange Functionals <=

    0.8000    B3_X
    0.2000      HF 

   => Correlation Functionals <=

    0.1900 VWN3RPA_C
    0.8100   LYP_C

   => Molecular Quadrature <=

    Radial Scheme    =       TREUTLER
    Pruning Scheme   =           FLAT
    Nuclear Scheme   =       TREUTLER

    BS radius alpha  =              1
    Pruning alpha    =              1
    Radial Points    =             75
    Spherical Points =            302
    Total Points     =          88292
    Total Blocks     =             89
    Max Points       =           4656
    Max Functions    =             38

   => -D3ZERO: Empirical Dispersion <=

    Grimme's -D3 (zero-damping) Dispersion Correction
    Grimme S.; Antony J.; Ehrlich S.; Krieg H. (2010), J. Chem. Phys., 132: 154104

        S6 =   1.000000E+00
        S8 =   1.703000E+00
       SR6 =   1.261000E+00
    ALPHA6 =   1.400000E+01

   => Loading Basis Set <=

    Name: (CC-PVDZ AUX)
    Role: JKFIT
    Keyword: DF_BASIS_SCF
    atoms 1-2 entry O          line   220 file /shared/raimis/opt/miniconda/envs/htmd/share/psi4/basis/cc-pvdz-jkfit.gbs 
    atoms 3-4 entry H          line    50 file /shared/raimis/opt/miniconda/envs/htmd/share/psi4/basis/cc-pvdz-jkfit.gbs 

  ==> Pre-Iterations <==

   -------------------------------------------------------
    Irrep   Nso     Nmo     Nalpha   Nbeta   Ndocc  Nsocc
   -------------------------------------------------------
     A         38      38       0       0       0       0
   -------------------------------------------------------
    Total      38      38       9       9       9       0
   -------------------------------------------------------

  ==> Integral Setup <==

  ==> DFJK: Density-Fitted J/K Matrices <==

    J tasked:                  Yes
    K tasked:                  Yes
    wK tasked:                  No
    OpenMP threads:              1
    Integrals threads:           1
    Memory (MB):              3006
    Algorithm:                Core
    Integral Cache:           NONE
    Schwarz Cutoff:          1E-12
    Fitting Condition:       1E-12

   => Auxiliary Basis Set <=

  Basis Set: (CC-PVDZ AUX)
    Blend: CC-PVDZ-JKFIT
    Number of shells: 66
    Number of basis function: 186
    Number of Cartesian functions: 212
    Spherical Harmonics?: true
    Max angular momentum: 3

  Minimum eigenvalue in the overlap matrix is 2.5297453594E-02.
  Using Symmetric Orthogonalization.

  SCF Guess: Superposition of Atomic Densities via on-the-fly atomic UHF.

  ==> Iterations <==

                           Total Energy        Delta E     RMS |[F,P]|

   @DF-RKS iter   0:  -151.63484272725907   -1.51635e+02   4.71954e-02 
   @DF-RKS iter   1:  -151.49263477061245    1.42208e-01   9.00357e-03 
   @DF-RKS iter   2:  -151.48645109941259    6.18367e-03   1.00520e-02 DIIS
   @DF-RKS iter   3:  -151.54107453718976   -5.46234e-02   9.26554e-04 DIIS
   @DF-RKS iter   4:  -151.54140310597441   -3.28569e-04   4.58399e-04 DIIS
   @DF-RKS iter   5:  -151.54149795377236   -9.48478e-05   1.71409e-04 DIIS
   @DF-RKS iter   6:  -151.54151322200661   -1.52682e-05   4.57549e-06 DIIS
   @DF-RKS iter   7:  -151.54151323722863   -1.52220e-08   1.20605e-06 DIIS
   @DF-RKS iter   8:  -151.54151323797424   -7.45615e-10   1.13174e-07 DIIS

  ==> Post-Iterations <==

    Orbital Energies (a.u.)
    -----------------------

    Doubly Occupied:                                                      

       1A    -19.191636     2A    -19.191600     3A     -1.119540  
       4A     -0.887339     5A     -0.549159     6A     -0.441108  
       7A     -0.426181     8A     -0.332679     9A     -0.261833  

    Virtual:                                                              

      10A      0.021397    11A      0.024052    12A      0.118752  
      13A      0.567940    14A      0.573091    15A      0.860241  
      16A      0.870128    17A      0.907899    18A      0.924213  
      19A      1.020392    20A      1.025829    21A      1.224893  
      22A      1.261651    23A      1.320825    24A      1.478127  
      25A      1.615207    26A      1.744387    27A      2.039381  
      28A      2.078264    29A      2.384811    30A      2.391400  
      31A      2.614262    32A      2.878117    33A      2.914828  
      34A      3.030242    35A      3.124158    36A      3.456359  
      37A      3.574293    38A      3.819184  

    Final Occupation by Irrep:
              A 
    DOCC [     9 ]

  Energy converged.

  @DF-RKS Final Energy:  -151.54151323797424

   => Energetics <=

    Nuclear Repulsion Energy =             36.8599296261455009
    One-Electron Energy =                -281.6167668462085203
    Two-Electron Energy =                 107.6774558229436565
    DFT Exchange-Correlation Energy =     -14.4619340308548825
    Empirical Dispersion Energy =          -0.0001978100000000
    PCM Polarization Energy =               0.0000000000000000
    EFP Energy =                            0.0000000000000000
    Total Energy =                       -151.5415132379742147



Properties will be evaluated at   0.000000,   0.000000,   0.000000 Bohr

Properties computed using the SCF density matrix

  Nuclear Dipole Moment: (a.u.)
     X:    58.8762      Y:    -3.7216      Z:    -1.7562

  Electronic Dipole Moment: (a.u.)
     X:   -58.9629      Y:     3.0881      Z:     0.8186

  Dipole Moment: (a.u.)
     X:    -0.0867      Y:    -0.6334      Z:    -0.9376     Total:     1.1348

  Dipole Moment: (Debye)
     X:    -0.2205      Y:    -1.6100      Z:    -2.3831     Total:     2.8845


*** tstop() called on computer06 at Tue Dec 12 12:40:33 2017
Module time:
	user time   =       4.36 seconds =       0.07 minutes
	system time =       0.06 seconds =       0.00 minutes
	total time  =          5 seconds =       0.08 minutes
Total time:
	user time   =       4.36 seconds =       0.07 minutes
	system time =       0.06 seconds =       0.00 minutes
	total time  =          5 seconds =       0.08 minutes


Properties will be evaluated at   0.000000,   0.000000,   0.000000 Bohr

Properties computed using the  density matrix

  Nuclear Dipole Moment: (a.u.)
     X:    58.8762      Y:    -3.7216      Z:    -1.7562

  Electronic Dipole Moment: (a.u.)
     X:   -58.9629      Y:     3.0881      Z:     0.8186

  Dipole Moment: (a.u.)
     X:    -0.0867      Y:    -0.6334      Z:    -0.9376     Total:     1.1348

  Dipole Moment: (Debye)
     X:    -0.2205      Y:    -1.6100      Z:    -2.3831     Total:     2.8845

  Quadrupole Moment: (Debye Ang)
    XX:   -12.0012     YY:   -10.6585     ZZ:    -9.7309
    XY:    -1.6284     XZ:    -4.7042     YZ:     1.3680

  Traceless Quadrupole Moment: (Debye Ang)
    XX:    -1.2044     YY:     0.1384     ZZ:     1.0660
    XY:    -1.6284     XZ:    -4.7042     YZ:     1.3680

  Mulliken Charges: (a.u.)
   Center  Symbol    Alpha    Beta     Spin     Total
       1     O     4.08225  4.08225  0.00000 -0.16451
       2     O     4.08223  4.08223  0.00000 -0.16447
       3     H     0.41775  0.41775  0.00000  0.16451
       4     H     0.41776  0.41776  0.00000  0.16447

   Total alpha =  9.00000, Total beta =  9.00000, Total charge = -0.00000


*** Psi4 exiting successfully. Buy a developer a beer!
