    -----------------------------------------------------------------------
          Psi4: An Open-Source Ab Initio Electronic Structure Package
                              Psi4 (no tag) Driver

                          Git: Rev {detached?}  

    J. M. Turney, A. C. Simmonett, R. M. Parrish, E. G. Hohenstein,
    F. A. Evangelista, J. T. Fermann, B. J. Mintz, L. A. Burns, J. J. Wilke,
    M. L. Abrams, N. J. Russ, M. L. Leininger, C. L. Janssen, E. T. Seidl,
    W. D. Allen, H. F. Schaefer, R. A. King, E. F. Valeev, C. D. Sherrill,
    and T. D. Crawford, WIREs Comput. Mol. Sci. 2, 556-565 (2012)
    (doi: 10.1002/wcms.93)

                         Additional Contributions by
    A. E. DePrince, M. Saitow, U. Bozkaya, A. Yu. Sokolov
    -----------------------------------------------------------------------


    Psi4 started on: Tue Jul  5 16:22:59 2016

    Process ID:  24553
    PSI4DATADIR: /export131/home/mjharvey/miniconda3/share
    Memory level set to 256.000 MB

  ==> Input File <==

--------------------------------------------------------------------------
set {
	reference rhf
	basis 6-31G*
}


set_num_threads( 1 )
memory 2 gb

molecule MOL {
0 1

H	 2.089113	 -0.728339	 -0.456437
O	 1.257964	 -0.641023	 -0.012494
C	 0.702312	 0.627605	 -0.264544
C	 -0.714990	 0.596302	 0.266387
H	 0.685494	 0.834954	 -1.331117
H	 1.273296	 1.409092	 0.232226
O	 -1.405996	 -0.526611	 -0.195820
H	 -1.257453	 1.468809	 -0.075599
H	 -0.688972	 0.618407	 1.353696
H	 -0.890587	 -1.292708	 0.022039

	symmetry c1
}
set optking {
	frozen_dihedral = ("
		10 7 4 3
	")
}

ee = energy('scf')
oeprop('DIPOLE', 'QUADRUPOLE', 'MULLIKEN_CHARGES')
f=open( 'psi4out.xyz', 'w' )
f.write( "10  " )
f.write( str(ee) + "\n" )
f.write( MOL.save_string_xyz() )
f.close()
--------------------------------------------------------------------------

  Memory set to   2.000 GiB by Python script.

*** tstart() called on cx1-49-4-2.cx1.hpc.ic.ac.uk
*** at Tue Jul  5 16:22:59 2016


         ---------------------------------------------------------
                                   SCF
            by Justin Turney, Rob Parrish, and Andy Simmonett
                              RHF Reference
                        1 Threads,   2000 MiB Core
         ---------------------------------------------------------

  ==> Geometry <==

    Molecular point group: c1
    Full point group: C1

    Geometry (in Angstrom), charge = 0, multiplicity = 1:

       Center              X                  Y                   Z               Mass       
    ------------   -----------------  -----------------  -----------------  -----------------
           H          2.110060717660    -0.701564082836    -0.398938245836     1.007825032070
           O          1.278911717660    -0.614248082836     0.045004754164    15.994914619560
           C          0.723259717660     0.654379917164    -0.207045245836    12.000000000000
           C         -0.694042282340     0.623076917164     0.323885754164    12.000000000000
           H          0.706441717660     0.861728917164    -1.273618245836     1.007825032070
           H          1.294243717660     1.435866917164     0.289724754164     1.007825032070
           O         -1.385048282340    -0.499836082836    -0.138321245836    15.994914619560
           H         -1.236505282340     1.495583917164    -0.018100245836     1.007825032070
           H         -0.668024282340     0.645181917164     1.411194754164     1.007825032070
           H         -0.869639282340    -1.265933082836     0.079537754164     1.007825032070

  Running in c1 symmetry.

  Rotational constants: A =      0.50626  B =      0.20016  C =      0.15898 [cm^-1]
  Rotational constants: A =  15177.31692  B =   6000.52543  C =   4766.05729 [MHz]
  Nuclear repulsion =  135.105340141247837

  Charge       = 0
  Multiplicity = 1
  Electrons    = 34
  Nalpha       = 17
  Nbeta        = 17

  ==> Algorithm <==

  SCF Algorithm Type is DF.
  DIIS enabled.
  MOM disabled.
  Fractional occupation disabled.
  Guess Type is CORE.
  Energy threshold   = 1.00e-06
  Density threshold  = 1.00e-06
  Integral threshold = 0.00e+00

  ==> Primary Basis <==

  Basis Set: 6-31G*
    Number of shells: 36
    Number of basis function: 72
    Number of Cartesian functions: 72
    Spherical Harmonics?: false
    Max angular momentum: 2

  ==> Pre-Iterations <==

   -------------------------------------------------------
    Irrep   Nso     Nmo     Nalpha   Nbeta   Ndocc  Nsocc
   -------------------------------------------------------
     A         72      72       0       0       0       0
   -------------------------------------------------------
    Total      72      72      17      17      17       0
   -------------------------------------------------------

 OEINTS: Overlap, kinetic, potential, dipole, and quadrupole integrals
         stored in file 35.

  ==> Integral Setup <==

  ==> DFJK: Density-Fitted J/K Matrices <==

    J tasked:                  Yes
    K tasked:                  Yes
    wK tasked:                  No
    OpenMP threads:              1
    Integrals threads:           1
    Memory (MB):              1430
    Algorithm:                Core
    Integral Cache:           NONE
    Schwarz Cutoff:          1E-12
    Fitting Condition:       1E-12

   => Auxiliary Basis Set <=

  Basis Set: 
    Number of shells: 150
    Number of basis function: 474
    Number of Cartesian functions: 474
    Spherical Harmonics?: false
    Max angular momentum: 3

  Minimum eigenvalue in the overlap matrix is 4.8139271360E-03.
  Using Symmetric Orthogonalization.
  SCF Guess: Core (One-Electron) Hamiltonian.

  ==> Iterations <==

                           Total Energy        Delta E     RMS |[F,P]|

   @DF-RHF iter   1:  -200.66050808625181   -2.00661e+02   8.42319e-02 
   @DF-RHF iter   2:  -192.68567805802019    7.97483e+00   7.67640e-02 DIIS
   @DF-RHF iter   3:  -223.55694054616976   -3.08713e+01   3.91749e-02 DIIS
   @DF-RHF iter   4:  -228.34642907657712   -4.78949e+00   1.49040e-02 DIIS
   @DF-RHF iter   5:  -228.87761899967910   -5.31190e-01   4.50839e-03 DIIS
   @DF-RHF iter   6:  -228.92032634821766   -4.27073e-02   1.17818e-03 DIIS
   @DF-RHF iter   7:  -228.92393464175410   -3.60829e-03   4.47526e-04 DIIS
   @DF-RHF iter   8:  -228.92452481931144   -5.90178e-04   1.17428e-04 DIIS
   @DF-RHF iter   9:  -228.92457289579937   -4.80765e-05   3.15813e-05 DIIS
   @DF-RHF iter  10:  -228.92457744122970   -4.54543e-06   8.31373e-06 DIIS
   @DF-RHF iter  11:  -228.92457777563590   -3.34406e-07   1.94196e-06 DIIS
   @DF-RHF iter  12:  -228.92457779438536   -1.87495e-08   7.05210e-07 DIIS

  ==> Post-Iterations <==

    Orbital Energies (a.u.)
    -----------------------

    Doubly Occupied:                                                      

       1A    -20.570187     2A    -20.545666     3A    -11.276569  
       4A    -11.267794     5A     -1.383562     6A     -1.347563  
       7A     -1.002418     8A     -0.842075     9A     -0.728477  
      10A     -0.681120    11A     -0.648345    12A     -0.599938  
      13A     -0.575474    14A     -0.529526    15A     -0.490786  
      16A     -0.453910    17A     -0.430061  

    Virtual:                                                              

      18A      0.213868    19A      0.265731    20A      0.278935  
      21A      0.308171    22A      0.319829    23A      0.349740  
      24A      0.383286    25A      0.420410    26A      0.438220  
      27A      0.752208    28A      0.799007    29A      0.806806  
      30A      0.817636    31A      0.910250    32A      0.918072  
      33A      1.076048    34A      1.091386    35A      1.115920  
      36A      1.136108    37A      1.156888    38A      1.182435  
      39A      1.210052    40A      1.232483    41A      1.266605  
      42A      1.302685    43A      1.336612    44A      1.418263  
      45A      1.515623    46A      1.575665    47A      1.698640  
      48A      1.706996    49A      1.847307    50A      1.894177  
      51A      1.985028    52A      2.016561    53A      2.049847  
      54A      2.144770    55A      2.252910    56A      2.366139  
      57A      2.433425    58A      2.466953    59A      2.498961  
      60A      2.634919    61A      2.718928    62A      2.752454  
      63A      2.759833    64A      2.850437    65A      2.908733  
      66A      3.042512    67A      3.172941    68A      3.242777  
      69A      4.165100    70A      4.194898    71A      4.638036  
      72A      4.856237  

    Final Occupation by Irrep:
              A 
    DOCC [    17 ]

  Energy converged.

  @DF-RHF Final Energy:  -228.92457779438536

   => Energetics <=

    Nuclear Repulsion Energy =            135.1053401412478365
    One-Electron Energy =                -581.3129784096926187
    Two-Electron Energy =                 217.2830604740593685
    DFT Exchange-Correlation Energy =       0.0000000000000000
    Empirical Dispersion Energy =           0.0000000000000000
    PCM Polarization Energy =               0.0000000000000000
    EFP Energy =                            0.0000000000000000
    Total Energy =                       -228.9245777943854137

    Alert: EFP and PCM quantities not currently incorporated into SCF psivars.

Properties will be evaluated at   0.000000,   0.000000,   0.000000 Bohr
  ==> Properties <==


Properties computed using the SCF density matrix

  Nuclear Dipole Moment: (a.u.)
     X:     1.2525      Y:     2.3110      Z:     0.0837

  Electronic Dipole Moment: (a.u.)
     X:    -0.2470      Y:    -1.8710      Z:    -0.1783

  Dipole Moment: (a.u.)
     X:     1.0055      Y:     0.4401      Z:    -0.0945     Total:     1.1016

  Dipole Moment: (Debye)
     X:     2.5557      Y:     1.1185      Z:    -0.2402     Total:     2.8001


  Saving occupied orbitals to File 180.

*** tstop() called on cx1-49-4-2.cx1.hpc.ic.ac.uk at Tue Jul  5 16:23:02 2016
Module time:
	user time   =       2.27 seconds =       0.04 minutes
	system time =       0.03 seconds =       0.00 minutes
	total time  =          3 seconds =       0.05 minutes
Total time:
	user time   =       2.27 seconds =       0.04 minutes
	system time =       0.03 seconds =       0.00 minutes
	total time  =          3 seconds =       0.05 minutes


Properties will be evaluated at   0.000000,   0.000000,   0.000000 Bohr

Properties computed using the  density matrix

  Nuclear Dipole Moment: (a.u.)
     X:     1.2525      Y:     2.3110      Z:     0.0837

  Electronic Dipole Moment: (a.u.)
     X:    -0.2470      Y:    -1.8710      Z:    -0.1783

  Dipole Moment: (a.u.)
     X:     1.0055      Y:     0.4401      Z:    -0.0945     Total:     1.1016

  Dipole Moment: (Debye)
     X:     2.5557      Y:     1.1185      Z:    -0.2402     Total:     2.8001

  Quadrupole Moment: (Debye Ang)
    XX:   -24.8982     YY:   -22.4372     ZZ:   -24.8731
    XY:    -0.9182     XZ:    -3.0968     YZ:     0.1501

  Traceless Quadrupole Moment: (Debye Ang)
    XX:    -0.8287     YY:     1.6323     ZZ:    -0.8036
    XY:    -0.9182     XZ:    -3.0968     YZ:     0.1501

  Mulliken Charges: (a.u.)
   Center  Symbol    Alpha    Beta     Spin     Total
       1     H     0.27567  0.27567  0.00000  0.44865
       2     O     4.37918  4.37918  0.00000 -0.75836
       3     C     3.00898  3.00898  0.00000 -0.01796
       4     C     2.99838  2.99838  0.00000  0.00323
       5     H     0.42387  0.42387  0.00000  0.15225
       6     H     0.42808  0.42808  0.00000  0.14384
       7     O     4.37313  4.37313  0.00000 -0.74625
       8     H     0.41674  0.41674  0.00000  0.16652
       9     H     0.42569  0.42569  0.00000  0.14861
      10     H     0.27027  0.27027  0.00000  0.45947

   Total alpha = 17.00000, Total beta = 17.00000, Total charge =  0.00000


*** PSI4 exiting successfully. Buy a developer a beer!
