    -----------------------------------------------------------------------
          Psi4: An Open-Source Ab Initio Electronic Structure Package
                              Psi4 (no tag) Driver

                          Git: Rev {detached?}  

    J. M. Turney, A. C. Simmonett, R. M. Parrish, E. G. Hohenstein,
    F. A. Evangelista, J. T. Fermann, B. J. Mintz, L. A. Burns, J. J. Wilke,
    M. L. Abrams, N. J. Russ, M. L. Leininger, C. L. Janssen, E. T. Seidl,
    W. D. Allen, H. F. Schaefer, R. A. King, E. F. Valeev, C. D. Sherrill,
    and T. D. Crawford, WIREs Comput. Mol. Sci. 2, 556-565 (2012)
    (doi: 10.1002/wcms.93)

                         Additional Contributions by
    A. E. DePrince, M. Saitow, U. Bozkaya, A. Yu. Sokolov
    -----------------------------------------------------------------------


    Psi4 started on: Tue Jul  5 16:32:55 2016

    Process ID:  21340
    PSI4DATADIR: /export131/home/mjharvey/miniconda3/share
    Memory level set to 256.000 MB

  ==> Input File <==

--------------------------------------------------------------------------
set {
	reference rhf
	basis 6-31G*
}


set_num_threads( 1 )
memory 2 gb

molecule MOL {
0 1

H	 -1.748661	 -2.220942	 -0.005015
C	 -1.343207	 -1.225221	 -0.013879
N	 -0.055091	 -1.100174	 -0.261126
C	 -2.150779	 -0.125890	 0.222726
C	 0.449969	 0.122615	 -0.277109
H	 -3.200618	 -0.238980	 0.422496
N	 -1.660212	 1.097703	 0.209594
C	 -0.371804	 1.219904	 -0.038265
C	 1.928147	 0.267347	 -0.541394
H	 0.029131	 2.217482	 -0.051283
C	 2.336517	 1.721249	 -0.801039
H	 2.466818	 -0.110132	 0.321279
H	 2.206639	 -0.350664	 -1.389144
H	 3.407751	 1.793366	 -0.959955
H	 2.075068	 2.346730	 0.044476
H	 1.838843	 2.116103	 -1.681222

	symmetry c1
}
ee = energy('scf')
oeprop('DIPOLE', 'QUADRUPOLE', 'MULLIKEN_CHARGES')
f=open( 'psi4out.xyz', 'w' )
f.write( "16  " )
f.write( str(ee) + "\n" )
f.write( MOL.save_string_xyz() )
f.close()
--------------------------------------------------------------------------

  Memory set to   2.000 GiB by Python script.

*** tstart() called on cx1-3-6-2.cx1.hpc.ic.ac.uk
*** at Tue Jul  5 16:32:56 2016


         ---------------------------------------------------------
                                   SCF
            by Justin Turney, Rob Parrish, and Andy Simmonett
                              RHF Reference
                        1 Threads,   2000 MiB Core
         ---------------------------------------------------------

  ==> Geometry <==

    Molecular point group: c1
    Full point group: C1

    Geometry (in Angstrom), charge = 0, multiplicity = 1:

       Center              X                  Y                   Z               Mass       
    ------------   -----------------  -----------------  -----------------  -----------------
           H         -1.686635057420    -2.492268003013     0.193315272062     1.007825032070
           C         -1.281181057420    -1.496547003013     0.184451272062    12.000000000000
           N          0.006934942580    -1.371500003013    -0.062795727938    14.003074004780
           C         -2.088753057420    -0.397216003013     0.421056272062    12.000000000000
           C          0.511994942580    -0.148711003013    -0.078778727938    12.000000000000
           H         -3.138592057420    -0.510306003013     0.620826272062     1.007825032070
           N         -1.598186057420     0.826376996987     0.407924272062    14.003074004780
           C         -0.309778057420     0.948577996987     0.160065272062    12.000000000000
           C          1.990172942580    -0.003979003013    -0.343063727938    12.000000000000
           H          0.091156942580     1.946155996987     0.147047272062     1.007825032070
           C          2.398542942580     1.449922996987    -0.602708727938    12.000000000000
           H          2.528843942580    -0.381458003013     0.519609272062     1.007825032070
           H          2.268664942580    -0.621990003013    -1.190813727938     1.007825032070
           H          3.469776942580     1.522039996987    -0.761624727938     1.007825032070
           H          2.137093942580     2.075403996987     0.242806272062     1.007825032070
           H          1.900868942580     1.844776996987    -1.482891727938     1.007825032070

  Running in c1 symmetry.

  Rotational constants: A =      0.16817  B =      0.05354  C =      0.04132 [cm^-1]
  Rotational constants: A =   5041.50473  B =   1605.03585  C =   1238.88125 [MHz]
  Nuclear repulsion =  350.568187267994972

  Charge       = 0
  Multiplicity = 1
  Electrons    = 58
  Nalpha       = 29
  Nbeta        = 29

  ==> Algorithm <==

  SCF Algorithm Type is DF.
  DIIS enabled.
  MOM disabled.
  Fractional occupation disabled.
  Guess Type is CORE.
  Energy threshold   = 1.00e-06
  Density threshold  = 1.00e-06
  Integral threshold = 0.00e+00

  ==> Primary Basis <==

  Basis Set: 6-31G*
    Number of shells: 64
    Number of basis function: 136
    Number of Cartesian functions: 136
    Spherical Harmonics?: false
    Max angular momentum: 2

  ==> Pre-Iterations <==

   -------------------------------------------------------
    Irrep   Nso     Nmo     Nalpha   Nbeta   Ndocc  Nsocc
   -------------------------------------------------------
     A        136     136       0       0       0       0
   -------------------------------------------------------
    Total     136     136      29      29      29       0
   -------------------------------------------------------

 OEINTS: Overlap, kinetic, potential, dipole, and quadrupole integrals
         stored in file 35.

  ==> Integral Setup <==

  ==> DFJK: Density-Fitted J/K Matrices <==

    J tasked:                  Yes
    K tasked:                  Yes
    wK tasked:                  No
    OpenMP threads:              1
    Integrals threads:           1
    Memory (MB):              1430
    Algorithm:                Core
    Integral Cache:           NONE
    Schwarz Cutoff:          1E-12
    Fitting Condition:       1E-12

   => Auxiliary Basis Set <=

  Basis Set: 
    Number of shells: 264
    Number of basis function: 848
    Number of Cartesian functions: 848
    Spherical Harmonics?: false
    Max angular momentum: 3

  Minimum eigenvalue in the overlap matrix is 1.1675641136E-03.
  Using Symmetric Orthogonalization.
  SCF Guess: Core (One-Electron) Hamiltonian.

  ==> Iterations <==

                           Total Energy        Delta E     RMS |[F,P]|

   @DF-RHF iter   1:  -251.54004711951234   -2.51540e+02   6.98773e-02 
   @DF-RHF iter   2:  -127.75679415201586    1.23783e+02   8.13568e-02 DIIS
   @DF-RHF iter   3:  -227.75838668432061   -1.00002e+02   7.08451e-02 DIIS
   @DF-RHF iter   4:  -290.04544912760514   -6.22871e+01   5.35904e-02 DIIS
   @DF-RHF iter   5:  -327.42120434055846   -3.73758e+01   2.64710e-02 DIIS
   @DF-RHF iter   6:  -335.57023285757032   -8.14903e+00   1.89635e-02 DIIS
   @DF-RHF iter   7:  -340.15327881865312   -4.58305e+00   7.52943e-03 DIIS
   @DF-RHF iter   8:  -340.64969758642656   -4.96419e-01   3.01837e-03 DIIS
   @DF-RHF iter   9:  -340.73804882748482   -8.83512e-02   1.06421e-03 DIIS
   @DF-RHF iter  10:  -340.75160540587240   -1.35566e-02   3.88698e-04 DIIS
   @DF-RHF iter  11:  -340.75404530872538   -2.43990e-03   1.11744e-04 DIIS
   @DF-RHF iter  12:  -340.75425858512199   -2.13276e-04   5.54829e-05 DIIS
   @DF-RHF iter  13:  -340.75432170396755   -6.31188e-05   3.25703e-05 DIIS
   @DF-RHF iter  14:  -340.75434620300530   -2.44990e-05   1.01113e-05 DIIS
   @DF-RHF iter  15:  -340.75435032379755   -4.12079e-06   2.84029e-06 DIIS
   @DF-RHF iter  16:  -340.75435074292250   -4.19125e-07   1.25438e-06 DIIS
   @DF-RHF iter  17:  -340.75435080979287   -6.68704e-08   3.55450e-07 DIIS

  ==> Post-Iterations <==

    Orbital Energies (a.u.)
    -----------------------

    Doubly Occupied:                                                      

       1A    -15.585915     2A    -15.581276     3A    -11.281026  
       4A    -11.275736     5A    -11.271366     6A    -11.269742  
       7A    -11.233764     8A    -11.223224     9A     -1.312528  
      10A     -1.220837    11A     -1.088528    12A     -1.013705  
      13A     -0.908181    14A     -0.891215    15A     -0.830219  
      16A     -0.716054    17A     -0.707739    18A     -0.651513  
      19A     -0.632299    20A     -0.613287    21A     -0.567328  
      22A     -0.560923    23A     -0.517090    24A     -0.514872  
      25A     -0.507670    26A     -0.483729    27A     -0.427130  
      28A     -0.393766    29A     -0.345082  

    Virtual:                                                              

      30A      0.103838    31A      0.136771    32A      0.240057  
      33A      0.272690    34A      0.277013    35A      0.296004  
      36A      0.312338    37A      0.315800    38A      0.326934  
      39A      0.347391    40A      0.376828    41A      0.389146  
      42A      0.399248    43A      0.428247    44A      0.509332  
      45A      0.518799    46A      0.561934    47A      0.628821  
      48A      0.661105    49A      0.719515    50A      0.723676  
      51A      0.726563    52A      0.749611    53A      0.785459  
      54A      0.787539    55A      0.814530    56A      0.832727  
      57A      0.849126    58A      0.869098    59A      0.900785  
      60A      0.914122    61A      0.945061    62A      0.972504  
      63A      0.995651    64A      1.045394    65A      1.066373  
      66A      1.083960    67A      1.090122    68A      1.108817  
      69A      1.113354    70A      1.119506    71A      1.144171  
      72A      1.154004    73A      1.161655    74A      1.182838  
      75A      1.212013    76A      1.216211    77A      1.247128  
      78A      1.261452    79A      1.270442    80A      1.317570  
      81A      1.377430    82A      1.428217    83A      1.487932  
      84A      1.513841    85A      1.530298    86A      1.611611  
      87A      1.687975    88A      1.710524    89A      1.755268  
      90A      1.775217    91A      1.787696    92A      1.797833  
      93A      1.896111    94A      1.918236    95A      2.019296  
      96A      2.098312    97A      2.110743    98A      2.124608  
      99A      2.143199   100A      2.179143   101A      2.246668  
     102A      2.280805   103A      2.293009   104A      2.342592  
     105A      2.423896   106A      2.476055   107A      2.506146  
     108A      2.547324   109A      2.575309   110A      2.604400  
     111A      2.640520   112A      2.654027   113A      2.684319  
     114A      2.689385   115A      2.713281   116A      2.719998  
     117A      2.826555   118A      2.867713   119A      2.902881  
     120A      2.939051   121A      3.015848   122A      3.104054  
     123A      3.137175   124A      3.191463   125A      3.226043  
     126A      3.286692   127A      3.514696   128A      3.846755  
     129A      4.381545   130A      4.505354   131A      4.557366  
     132A      4.646963   133A      4.710011   134A      4.736509  
     135A      4.890389   136A      5.011332  

    Final Occupation by Irrep:
              A 
    DOCC [    29 ]

  Energy converged.

  @DF-RHF Final Energy:  -340.75435080979287

   => Energetics <=

    Nuclear Repulsion Energy =            350.5681872679949720
    One-Electron Energy =               -1155.3936877184673904
    Two-Electron Energy =                 464.0711496406787546
    DFT Exchange-Correlation Energy =       0.0000000000000000
    Empirical Dispersion Energy =           0.0000000000000000
    PCM Polarization Energy =               0.0000000000000000
    EFP Energy =                            0.0000000000000000
    Total Energy =                       -340.7543508097936638

    Alert: EFP and PCM quantities not currently incorporated into SCF psivars.

Properties will be evaluated at   0.000000,   0.000000,   0.000000 Bohr
  ==> Properties <==


Properties computed using the SCF density matrix

  Nuclear Dipole Moment: (a.u.)
     X:     7.1024      Y:     3.1724      Z:    -1.6057

  Electronic Dipole Moment: (a.u.)
     X:    -6.8677      Y:    -3.2012      Z:     1.5632

  Dipole Moment: (a.u.)
     X:     0.2347      Y:    -0.0287      Z:    -0.0425     Total:     0.2403

  Dipole Moment: (Debye)
     X:     0.5966      Y:    -0.0730      Z:    -0.1081     Total:     0.6107


  Saving occupied orbitals to File 180.

*** tstop() called on cx1-3-6-2.cx1.hpc.ic.ac.uk at Tue Jul  5 16:33:19 2016
Module time:
	user time   =      22.34 seconds =       0.37 minutes
	system time =       0.12 seconds =       0.00 minutes
	total time  =         23 seconds =       0.38 minutes
Total time:
	user time   =      22.34 seconds =       0.37 minutes
	system time =       0.12 seconds =       0.00 minutes
	total time  =         23 seconds =       0.38 minutes


Properties will be evaluated at   0.000000,   0.000000,   0.000000 Bohr

Properties computed using the  density matrix

  Nuclear Dipole Moment: (a.u.)
     X:     7.1024      Y:     3.1724      Z:    -1.6057

  Electronic Dipole Moment: (a.u.)
     X:    -6.8677      Y:    -3.2012      Z:     1.5632

  Dipole Moment: (a.u.)
     X:     0.2347      Y:    -0.0287      Z:    -0.0425     Total:     0.2403

  Dipole Moment: (Debye)
     X:     0.5966      Y:    -0.0730      Z:    -0.1081     Total:     0.6107

  Quadrupole Moment: (Debye Ang)
    XX:   -44.2814     YY:   -49.5206     ZZ:   -48.7245
    XY:     6.5865     XZ:    -0.3961     YZ:    -1.2664

  Traceless Quadrupole Moment: (Debye Ang)
    XX:     3.2274     YY:    -2.0118     ZZ:    -1.2156
    XY:     6.5865     XZ:    -0.3961     YZ:    -1.2664

  Mulliken Charges: (a.u.)
   Center  Symbol    Alpha    Beta     Spin     Total
       1     H     0.39385  0.39385  0.00000  0.21230
       2     C     2.99051  2.99051  0.00000  0.01897
       3     N     3.75425  3.75425  0.00000 -0.50850
       4     C     2.99844  2.99844  0.00000  0.00312
       5     C     2.87830  2.87830  0.00000  0.24340
       6     H     0.39448  0.39448  0.00000  0.21104
       7     N     3.73239  3.73239  0.00000 -0.46478
       8     C     2.99783  2.99783  0.00000  0.00433
       9     C     3.16010  3.16010  0.00000 -0.32020
      10     H     0.39194  0.39194  0.00000  0.21613
      11     C     3.25727  3.25727  0.00000 -0.51454
      12     H     0.40464  0.40464  0.00000  0.19072
      13     H     0.40314  0.40314  0.00000  0.19372
      14     H     0.41132  0.41132  0.00000  0.17736
      15     H     0.41726  0.41726  0.00000  0.16548
      16     H     0.41427  0.41427  0.00000  0.17145

   Total alpha = 29.00000, Total beta = 29.00000, Total charge = -0.00000


*** PSI4 exiting successfully. Buy a developer a beer!
