    -----------------------------------------------------------------------
          Psi4: An Open-Source Ab Initio Electronic Structure Package
                              Psi4 (no tag) Driver

                          Git: Rev {detached?}  

    J. M. Turney, A. C. Simmonett, R. M. Parrish, E. G. Hohenstein,
    F. A. Evangelista, J. T. Fermann, B. J. Mintz, L. A. Burns, J. J. Wilke,
    M. L. Abrams, N. J. Russ, M. L. Leininger, C. L. Janssen, E. T. Seidl,
    W. D. Allen, H. F. Schaefer, R. A. King, E. F. Valeev, C. D. Sherrill,
    and T. D. Crawford, WIREs Comput. Mol. Sci. 2, 556-565 (2012)
    (doi: 10.1002/wcms.93)

                         Additional Contributions by
    A. E. DePrince, M. Saitow, U. Bozkaya, A. Yu. Sokolov
    -----------------------------------------------------------------------


    Psi4 started on: Tue Jul  5 16:23:52 2016

    Process ID:  10347
    PSI4DATADIR: /export131/home/mjharvey/miniconda3/share
    Memory level set to 256.000 MB

  ==> Input File <==

--------------------------------------------------------------------------
set {
	reference rhf
	basis 6-31G*
}


set_num_threads( 1 )
memory 2 gb

molecule MOL {
0 1

H	 2.339122	 -2.060219	 0.059233
N	 1.352298	 -1.894275	 0.060532
C	 0.945656	 -1.242394	 -1.170892
C	 0.970083	 -1.115875	 1.224455
H	 1.234131	 -1.865422	 -2.010765
H	 1.414190	 -0.263914	 -1.300101
C	 -0.565000	 -1.062658	 -1.164236
H	 1.276247	 -1.647281	 2.119239
H	 1.440096	 -0.129733	 1.240324
C	 -0.540588	 -0.936217	 1.229627
H	 -1.041628	 -2.047223	 -1.187795
H	 -0.870737	 -0.525825	 -2.056358
N	 -0.975995	 -0.298722	 0.000000
H	 -0.828696	 -0.308073	 2.066271
H	 -1.015581	 -1.912312	 1.366448
C	 -2.393863	 -0.024976	 0.000000
H	 -2.854032	 -0.467193	 -0.876721
H	 -2.854032	 -0.467193	 0.876721
H	 -2.623281	 1.044943	 0.000000

	symmetry c1
}
ee = energy('scf')
oeprop('DIPOLE', 'QUADRUPOLE', 'MULLIKEN_CHARGES')
f=open( 'psi4out.xyz', 'w' )
f.write( "19  " )
f.write( str(ee) + "\n" )
f.write( MOL.save_string_xyz() )
f.close()
--------------------------------------------------------------------------

  Memory set to   2.000 GiB by Python script.

*** tstart() called on cx1-3-2-1.cx1.hpc.ic.ac.uk
*** at Tue Jul  5 16:23:52 2016


         ---------------------------------------------------------
                                   SCF
            by Justin Turney, Rob Parrish, and Andy Simmonett
                              RHF Reference
                        1 Threads,   2000 MiB Core
         ---------------------------------------------------------

  ==> Geometry <==

    Molecular point group: c1
    Full point group: C1

    Geometry (in Angstrom), charge = 0, multiplicity = 1:

       Center              X                  Y                   Z               Mass       
    ------------   -----------------  -----------------  -----------------  -----------------
           H          2.520477084712    -1.120889618645     0.033519744036     1.007825032070
           N          1.533653084712    -0.954945618645     0.034818744036    14.003074004780
           C          1.127011084712    -0.303064618645    -1.196605255964    12.000000000000
           C          1.151438084712    -0.176545618645     1.198741744036    12.000000000000
           H          1.415486084712    -0.926092618645    -2.036478255964     1.007825032070
           H          1.595545084712     0.675415381355    -1.325814255964     1.007825032070
           C         -0.383644915288    -0.123328618645    -1.189949255964    12.000000000000
           H          1.457602084712    -0.707951618645     2.093525744036     1.007825032070
           H          1.621451084712     0.809596381355     1.214610744036     1.007825032070
           C         -0.359232915288     0.003112381355     1.203913744036    12.000000000000
           H         -0.860272915288    -1.107893618645    -1.213508255964     1.007825032070
           H         -0.689381915288     0.413504381355    -2.082071255964     1.007825032070
           N         -0.794639915288     0.640607381355    -0.025713255964    14.003074004780
           H         -0.647340915288     0.631256381355     2.040557744036     1.007825032070
           H         -0.834225915288    -0.972982618645     1.340734744036     1.007825032070
           C         -2.212507915288     0.914353381355    -0.025713255964    12.000000000000
           H         -2.672676915288     0.472136381355    -0.902434255964     1.007825032070
           H         -2.672676915288     0.472136381355     0.851007744036     1.007825032070
           H         -2.441925915288     1.984272381355    -0.025713255964     1.007825032070

  Running in c1 symmetry.

  Rotational constants: A =      0.15722  B =      0.07861  C =      0.05697 [cm^-1]
  Rotational constants: A =   4713.28223  B =   2356.56283  C =   1708.03177 [MHz]
  Nuclear repulsion =  339.978877217584625

  Charge       = 0
  Multiplicity = 1
  Electrons    = 56
  Nalpha       = 28
  Nbeta        = 28

  ==> Algorithm <==

  SCF Algorithm Type is DF.
  DIIS enabled.
  MOM disabled.
  Fractional occupation disabled.
  Guess Type is CORE.
  Energy threshold   = 1.00e-06
  Density threshold  = 1.00e-06
  Integral threshold = 0.00e+00

  ==> Primary Basis <==

  Basis Set: 6-31G*
    Number of shells: 66
    Number of basis function: 129
    Number of Cartesian functions: 129
    Spherical Harmonics?: false
    Max angular momentum: 2

  ==> Pre-Iterations <==

   -------------------------------------------------------
    Irrep   Nso     Nmo     Nalpha   Nbeta   Ndocc  Nsocc
   -------------------------------------------------------
     A        129     129       0       0       0       0
   -------------------------------------------------------
    Total     129     129      28      28      28       0
   -------------------------------------------------------

 OEINTS: Overlap, kinetic, potential, dipole, and quadrupole integrals
         stored in file 35.

  ==> Integral Setup <==

  ==> DFJK: Density-Fitted J/K Matrices <==

    J tasked:                  Yes
    K tasked:                  Yes
    wK tasked:                  No
    OpenMP threads:              1
    Integrals threads:           1
    Memory (MB):              1430
    Algorithm:                Core
    Integral Cache:           NONE
    Schwarz Cutoff:          1E-12
    Fitting Condition:       1E-12

   => Auxiliary Basis Set <=

  Basis Set: 
    Number of shells: 276
    Number of basis function: 867
    Number of Cartesian functions: 867
    Spherical Harmonics?: false
    Max angular momentum: 3

  Minimum eigenvalue in the overlap matrix is 3.3767846134E-03.
  Using Symmetric Orthogonalization.
  SCF Guess: Core (One-Electron) Hamiltonian.

  ==> Iterations <==

                           Total Energy        Delta E     RMS |[F,P]|

   @DF-RHF iter   1:  -233.40546170308124   -2.33405e+02   7.07390e-02 
   @DF-RHF iter   2:  -174.12031137585456    5.92852e+01   7.03582e-02 DIIS
   @DF-RHF iter   3:  -254.38003038589335   -8.02597e+01   5.35109e-02 DIIS
   @DF-RHF iter   4:  -271.23679881474374   -1.68568e+01   5.29612e-02 DIIS
   @DF-RHF iter   5:  -304.73604043894005   -3.34992e+01   7.20513e-03 DIIS
   @DF-RHF iter   6:  -305.12424961278504   -3.88209e-01   2.77060e-03 DIIS
   @DF-RHF iter   7:  -305.18098018171230   -5.67306e-02   1.02886e-03 DIIS
   @DF-RHF iter   8:  -305.19152235006783   -1.05422e-02   2.60134e-04 DIIS
   @DF-RHF iter   9:  -305.19240169398898   -8.79344e-04   8.27466e-05 DIIS
   @DF-RHF iter  10:  -305.19247371066484   -7.20167e-05   3.20761e-05 DIIS
   @DF-RHF iter  11:  -305.19248697412053   -1.32635e-05   5.77370e-06 DIIS
   @DF-RHF iter  12:  -305.19248739888548   -4.24765e-07   1.54852e-06 DIIS
   @DF-RHF iter  13:  -305.19248744942041   -5.05349e-08   3.85634e-07 DIIS

  ==> Post-Iterations <==

    Orbital Energies (a.u.)
    -----------------------

    Doubly Occupied:                                                      

       1A    -15.537592     2A    -15.536193     3A    -11.237940  
       4A    -11.237898     5A    -11.237139     6A    -11.237104  
       7A    -11.233720     8A     -1.246817     9A     -1.185227  
      10A     -1.022677    11A     -0.963688    12A     -0.861281  
      13A     -0.856731    14A     -0.757929    15A     -0.690327  
      16A     -0.631462    17A     -0.623804    18A     -0.605721  
      19A     -0.604861    20A     -0.580627    21A     -0.544675  
      22A     -0.532946    23A     -0.512150    24A     -0.487782  
      25A     -0.465021    26A     -0.456323    27A     -0.362671  
      28A     -0.341843  

    Virtual:                                                              

      29A      0.231632    30A      0.253260    31A      0.283213  
      32A      0.287500    33A      0.295589    34A      0.306495  
      35A      0.311247    36A      0.331821    37A      0.336735  
      38A      0.349361    39A      0.350884    40A      0.361912  
      41A      0.365392    42A      0.408287    43A      0.432768  
      44A      0.438448    45A      0.469949    46A      0.472915  
      47A      0.501980    48A      0.736305    49A      0.745649  
      50A      0.765680    51A      0.791637    52A      0.792356  
      53A      0.806974    54A      0.842624    55A      0.871051  
      56A      0.887054    57A      0.926478    58A      0.938184  
      59A      0.950590    60A      0.993493    61A      1.046711  
      62A      1.059242    63A      1.094432    64A      1.100480  
      65A      1.132653    66A      1.134797    67A      1.143097  
      68A      1.149140    69A      1.154230    70A      1.167326  
      71A      1.181510    72A      1.204134    73A      1.214021  
      74A      1.235500    75A      1.246255    76A      1.267425  
      77A      1.278597    78A      1.292945    79A      1.316544  
      80A      1.416314    81A      1.516635    82A      1.541583  
      83A      1.595020    84A      1.639424    85A      1.696610  
      86A      1.701298    87A      1.787635    88A      1.858109  
      89A      1.883474    90A      2.016799    91A      2.056999  
      92A      2.085984    93A      2.136071    94A      2.182835  
      95A      2.227353    96A      2.297237    97A      2.311011  
      98A      2.321348    99A      2.330838   100A      2.349301  
     101A      2.387477   102A      2.430313   103A      2.457465  
     104A      2.490294   105A      2.556667   106A      2.577811  
     107A      2.614120   108A      2.638463   109A      2.668799  
     110A      2.680644   111A      2.745131   112A      2.753216  
     113A      2.803889   114A      2.871956   115A      2.906633  
     116A      2.916312   117A      3.059217   118A      3.119746  
     119A      3.135331   120A      3.178701   121A      3.240532  
     122A      3.269053   123A      4.359953   124A      4.536758  
     125A      4.659676   126A      4.685678   127A      4.805683  
     128A      4.955541   129A      4.976110  

    Final Occupation by Irrep:
              A 
    DOCC [    28 ]

  Energy converged.

  @DF-RHF Final Energy:  -305.19248744942041

   => Energetics <=

    Nuclear Repulsion Energy =            339.9788772175846248
    One-Electron Energy =               -1087.1584762763393428
    Two-Electron Energy =                 441.9871116093344199
    DFT Exchange-Correlation Energy =       0.0000000000000000
    Empirical Dispersion Energy =           0.0000000000000000
    PCM Polarization Energy =               0.0000000000000000
    EFP Energy =                            0.0000000000000000
    Total Energy =                       -305.1924874494203550

    Alert: EFP and PCM quantities not currently incorporated into SCF psivars.

Properties will be evaluated at   0.000000,   0.000000,   0.000000 Bohr
  ==> Properties <==


Properties computed using the SCF density matrix

  Nuclear Dipole Moment: (a.u.)
     X:    -2.0720      Y:     0.5845      Z:    -0.0113

  Electronic Dipole Moment: (a.u.)
     X:     2.1637      Y:    -0.5366      Z:     0.0043

  Dipole Moment: (a.u.)
     X:     0.0917      Y:     0.0479      Z:    -0.0070     Total:     0.1037

  Dipole Moment: (Debye)
     X:     0.2331      Y:     0.1218      Z:    -0.0178     Total:     0.2636


  Saving occupied orbitals to File 180.

*** tstop() called on cx1-3-2-1.cx1.hpc.ic.ac.uk at Tue Jul  5 16:24:03 2016
Module time:
	user time   =      10.88 seconds =       0.18 minutes
	system time =       0.07 seconds =       0.00 minutes
	total time  =         11 seconds =       0.18 minutes
Total time:
	user time   =      10.88 seconds =       0.18 minutes
	system time =       0.07 seconds =       0.00 minutes
	total time  =         11 seconds =       0.18 minutes


Properties will be evaluated at   0.000000,   0.000000,   0.000000 Bohr

Properties computed using the  density matrix

  Nuclear Dipole Moment: (a.u.)
     X:    -2.0720      Y:     0.5845      Z:    -0.0113

  Electronic Dipole Moment: (a.u.)
     X:     2.1637      Y:    -0.5366      Z:     0.0043

  Dipole Moment: (a.u.)
     X:     0.0917      Y:     0.0479      Z:    -0.0070     Total:     0.1037

  Dipole Moment: (Debye)
     X:     0.2331      Y:     0.1218      Z:    -0.0178     Total:     0.2636

  Quadrupole Moment: (Debye Ang)
    XX:   -40.4007     YY:   -49.3196     ZZ:   -42.2964
    XY:    -0.4080     XZ:     0.0390     YZ:     0.3707

  Traceless Quadrupole Moment: (Debye Ang)
    XX:     3.6049     YY:    -5.3141     ZZ:     1.7092
    XY:    -0.4080     XZ:     0.0390     YZ:     0.3707

  Mulliken Charges: (a.u.)
   Center  Symbol    Alpha    Beta     Spin     Total
       1     H     0.32950  0.32950  0.00000  0.34100
       2     N     3.85438  3.85438  0.00000 -0.70876
       3     C     3.06337  3.06337  0.00000 -0.12674
       4     C     3.06336  3.06336  0.00000 -0.12673
       5     H     0.41793  0.41793  0.00000  0.16414
       6     H     0.42761  0.42761  0.00000  0.14479
       7     C     3.05842  3.05842  0.00000 -0.11685
       8     H     0.41792  0.41792  0.00000  0.16417
       9     H     0.42758  0.42758  0.00000  0.14483
      10     C     3.05843  3.05843  0.00000 -0.11686
      11     H     0.42814  0.42814  0.00000  0.14371
      12     H     0.41749  0.41749  0.00000  0.16503
      13     N     3.78703  3.78703  0.00000 -0.57406
      14     H     0.41742  0.41742  0.00000  0.16516
      15     H     0.42801  0.42801  0.00000  0.14399
      16     C     3.13939  3.13939  0.00000 -0.27878
      17     H     0.42251  0.42251  0.00000  0.15498
      18     H     0.42367  0.42367  0.00000  0.15266
      19     H     0.41784  0.41784  0.00000  0.16432

   Total alpha = 28.00000, Total beta = 28.00000, Total charge =  0.00000


*** PSI4 exiting successfully. Buy a developer a beer!
