
    -----------------------------------------------------------------------
          Psi4: An Open-Source Ab Initio Electronic Structure Package
                               Psi4 1.1 release

                         Git: Rev {HEAD} add49b9 


    R. M. Parrish, L. A. Burns, D. G. A. Smith, A. C. Simmonett,
    A. E. DePrince III, E. G. Hohenstein, U. Bozkaya, A. Yu. Sokolov,
    R. Di Remigio, R. M. Richard, J. F. Gonthier, A. M. James,
    H. R. McAlexander, A. Kumar, M. Saitow, X. Wang, B. P. Pritchard,
    P. Verma, H. F. Schaefer III, K. Patkowski, R. A. King, E. F. Valeev,
    F. A. Evangelista, J. M. Turney, T. D. Crawford, and C. D. Sherrill,
    J. Chem. Theory Comput. in press (2017).
    (doi: 10.1021/acs.jctc.7b00174)

    -----------------------------------------------------------------------


    Psi4 started on: Friday, 15 September 2017 12:53PM

    Process ID:  13974
    PSIDATADIR: /home/raimis/opt/miniconda3/envs/htmd/share/psi4
    Memory:     500.0 MiB
    Threads:    1
    
  ==> Input File <==

--------------------------------------------------------------------------
set_num_threads( 8 )
memory 2.000000 gb

set { reference rks }
set { basis cc-pVDZ }

molecule MOL {
    0 1
    noreorient
    nocom
    symmetry c1
    O    1.050400   0.042900  -0.048100
    C    2.474100   0.047400  -0.029000
    C    3.002600  -1.068900  -0.932000
    N    4.462700  -1.072400  -1.006800
    H    0.776967   0.746685  -0.661234
    H    2.809900  -0.097900   1.003200
    H    2.817400   1.026800  -0.378600
    H    2.581000  -0.963300  -1.938400
    H    2.653800  -2.036400  -0.553400
    H    4.779000  -0.221000  -1.470000
    H    4.758600  -1.842500  -1.606500
}

set optking { frozen_dihedral = (" 3 2 1 5 ") }

energy, wfn = energy('B3LYP-D3', return_wfn=True)

import os
os.chdir(os.environ['HTMD_PSI4_WORKDIR'])

oeprop(wfn, 'DIPOLE', 'QUADRUPOLE', 'MULLIKEN_CHARGES')

with open('psi4out.xyz', 'w') as f:
    f.write('11 ' )
    f.write('%.12f\n' % energy)
    f.write(MOL.save_string_xyz())
--------------------------------------------------------------------------
  Threads set to 8 by Python driver.

  Memory set to   1.863 GiB by Python driver.

*** tstart() called on computer03
*** at Fri Sep 15 12:53:11 2017

   => Loading Basis Set <=

    Name: CC-PVDZ
    Role: ORBITAL
    Keyword: BASIS
    atoms 1    entry O          line   190 file /home/raimis/opt/miniconda3/envs/htmd/share/psi4/basis/cc-pvdz.gbs 
    atoms 2-3  entry C          line   130 file /home/raimis/opt/miniconda3/envs/htmd/share/psi4/basis/cc-pvdz.gbs 
    atoms 4    entry N          line   160 file /home/raimis/opt/miniconda3/envs/htmd/share/psi4/basis/cc-pvdz.gbs 
    atoms 5-11 entry H          line    20 file /home/raimis/opt/miniconda3/envs/htmd/share/psi4/basis/cc-pvdz.gbs 


         ---------------------------------------------------------
                                   SCF
            by Justin Turney, Rob Parrish, and Andy Simmonett
                              RKS Reference
                        8 Threads,   1907 MiB Core
         ---------------------------------------------------------

  ==> Geometry <==

    Molecular point group: c1
    Full point group: C1

    Geometry (in Angstrom), charge = 0, multiplicity = 1:

       Center              X                  Y                   Z               Mass       
    ------------   -----------------  -----------------  -----------------  -----------------
           O          1.050400000000     0.042900000000    -0.048100000000    15.994914619560
           C          2.474100000000     0.047400000000    -0.029000000000    12.000000000000
           C          3.002600000000    -1.068900000000    -0.932000000000    12.000000000000
           N          4.462700000000    -1.072400000000    -1.006800000000    14.003074004780
           H          0.776967000000     0.746685000000    -0.661234000000     1.007825032070
           H          2.809900000000    -0.097900000000     1.003200000000     1.007825032070
           H          2.817400000000     1.026800000000    -0.378600000000     1.007825032070
           H          2.581000000000    -0.963300000000    -1.938400000000     1.007825032070
           H          2.653800000000    -2.036400000000    -0.553400000000     1.007825032070
           H          4.779000000000    -0.221000000000    -1.470000000000     1.007825032070
           H          4.758600000000    -1.842500000000    -1.606500000000     1.007825032070

  Running in c1 symmetry.

  Rotational constants: A =      0.72656  B =      0.02758  C =      0.02698 [cm^-1]
  Rotational constants: A =  21781.77439  B =    826.83257  C =    808.85870 [MHz]
  Nuclear repulsion =  130.639355408340379

  Charge       = 0
  Multiplicity = 1
  Electrons    = 34
  Nalpha       = 17
  Nbeta        = 17

  ==> Algorithm <==

  SCF Algorithm Type is DF.
  DIIS enabled.
  MOM disabled.
  Fractional occupation disabled.
  Guess Type is SAD.
  Energy threshold   = 1.00e-06
  Density threshold  = 1.00e-06
  Integral threshold = 0.00e+00

  ==> Primary Basis <==

  Basis Set: CC-PVDZ
    Blend: CC-PVDZ
    Number of shells: 45
    Number of basis function: 91
    Number of Cartesian functions: 95
    Spherical Harmonics?: true
    Max angular momentum: 2

  ==> DFT Potential <==

   => B3LYP Composite Functional <= 

    B3LYP Hybrid-GGA Exchange-Correlation Functional (VWN1-RPA)

    P.J. Stephens et. al., J. Phys. Chem., 98, 11623-11627, 1994

    Points   =           5000
    Deriv    =              1
    GGA      =           TRUE
    Meta     =          FALSE

    X_LRC        =          FALSE
    X_Hybrid     =           TRUE
    X_Alpha      =   2.000000E-01
    X_Omega      =   0.000000E+00
    C_LRC        =          FALSE
    C_Hybrid     =          FALSE
    C_Alpha      =   0.000000E+00
    C_Omega      =   0.000000E+00

   => Exchange Functionals <=

    0.8000    B3_X
    0.2000      HF 

   => Correlation Functionals <=

    0.1900 VWN3RPA_C
    0.8100   LYP_C

   => Molecular Quadrature <=

    Radial Scheme    =       TREUTLER
    Pruning Scheme   =           FLAT
    Nuclear Scheme   =       TREUTLER

    BS radius alpha  =              1
    Pruning alpha    =              1
    Radial Points    =             75
    Spherical Points =            302
    Total Points     =         245080
    Total Blocks     =            220
    Max Points       =           4890
    Max Functions    =             91

   => -D3ZERO: Empirical Dispersion <=

    Grimme's -D3 (zero-damping) Dispersion Correction
    Grimme S.; Antony J.; Ehrlich S.; Krieg H. (2010), J. Chem. Phys., 132: 154104

        S6 =   1.000000E+00
        S8 =   1.703000E+00
       SR6 =   1.261000E+00
    ALPHA6 =   1.400000E+01

   => Loading Basis Set <=

    Name: (CC-PVDZ AUX)
    Role: JKFIT
    Keyword: DF_BASIS_SCF
    atoms 1    entry O          line   220 file /home/raimis/opt/miniconda3/envs/htmd/share/psi4/basis/cc-pvdz-jkfit.gbs 
    atoms 2-3  entry C          line   120 file /home/raimis/opt/miniconda3/envs/htmd/share/psi4/basis/cc-pvdz-jkfit.gbs 
    atoms 4    entry N          line   170 file /home/raimis/opt/miniconda3/envs/htmd/share/psi4/basis/cc-pvdz-jkfit.gbs 
    atoms 5-11 entry H          line    50 file /home/raimis/opt/miniconda3/envs/htmd/share/psi4/basis/cc-pvdz-jkfit.gbs 

  ==> Pre-Iterations <==

   -------------------------------------------------------
    Irrep   Nso     Nmo     Nalpha   Nbeta   Ndocc  Nsocc
   -------------------------------------------------------
     A         91      91       0       0       0       0
   -------------------------------------------------------
    Total      91      91      17      17      17       0
   -------------------------------------------------------

  ==> Integral Setup <==

  ==> DFJK: Density-Fitted J/K Matrices <==

    J tasked:                  Yes
    K tasked:                  Yes
    wK tasked:                  No
    OpenMP threads:              8
    Integrals threads:           8
    Memory (MB):              1430
    Algorithm:                Core
    Integral Cache:           NONE
    Schwarz Cutoff:          1E-12
    Fitting Condition:       1E-12

   => Auxiliary Basis Set <=

  Basis Set: (CC-PVDZ AUX)
    Blend: CC-PVDZ-JKFIT
    Number of shells: 159
    Number of basis function: 441
    Number of Cartesian functions: 499
    Spherical Harmonics?: true
    Max angular momentum: 3

  Minimum eigenvalue in the overlap matrix is 4.5418874404E-03.
  Using Symmetric Orthogonalization.

  SCF Guess: Superposition of Atomic Densities via on-the-fly atomic UHF.

  ==> Iterations <==

                           Total Energy        Delta E     RMS |[F,P]|

   @DF-RKS iter   0:  -210.82259794357216   -2.10823e+02   7.06991e-02 
   @DF-RKS iter   1:  -210.19875077979611    6.23847e-01   1.46325e-02 
   @DF-RKS iter   2:  -210.03974928441301    1.59001e-01   2.00477e-02 DIIS
   @DF-RKS iter   3:  -210.38968522941988   -3.49936e-01   1.07868e-03 DIIS
   @DF-RKS iter   4:  -210.39043842593287   -7.53197e-04   6.52428e-04 DIIS
   @DF-RKS iter   5:  -210.39099299140685   -5.54565e-04   1.02652e-04 DIIS
   @DF-RKS iter   6:  -210.39100023841817   -7.24701e-06   5.07236e-05 DIIS
   @DF-RKS iter   7:  -210.39100249838887   -2.25997e-06   3.57025e-06 DIIS
   @DF-RKS iter   8:  -210.39100251157510   -1.31862e-08   1.14525e-06 DIIS
   @DF-RKS iter   9:  -210.39100251273072   -1.15563e-09   3.39240e-07 DIIS

  ==> Post-Iterations <==

    Orbital Energies (a.u.)
    -----------------------

    Doubly Occupied:                                                      

       1A    -19.129318     2A    -14.304507     3A    -10.224773  
       4A    -10.199783     5A     -1.011777     6A     -0.876540  
       7A     -0.710956     8A     -0.602242     9A     -0.514336  
      10A     -0.472404    11A     -0.460299    12A     -0.410917  
      13A     -0.394182    14A     -0.366572    15A     -0.321264  
      16A     -0.264813    17A     -0.231402  

    Virtual:                                                              

      18A      0.046666    19A      0.055608    20A      0.101346  
      21A      0.109867    22A      0.133075    23A      0.156515  
      24A      0.165175    25A      0.203881    26A      0.248527  
      27A      0.262068    28A      0.435071    29A      0.445825  
      30A      0.491848    31A      0.502716    32A      0.544077  
      33A      0.584340    34A      0.596885    35A      0.620197  
      36A      0.644760    37A      0.650289    38A      0.661685  
      39A      0.674502    40A      0.696905    41A      0.814521  
      42A      0.830025    43A      0.844464    44A      0.923205  
      45A      0.957490    46A      1.007761    47A      1.023566  
      48A      1.064475    49A      1.110626    50A      1.209794  
      51A      1.232417    52A      1.265175    53A      1.331773  
      54A      1.399690    55A      1.420026    56A      1.471069  
      57A      1.511071    58A      1.591630    59A      1.632537  
      60A      1.644384    61A      1.656108    62A      1.689788  
      63A      1.706391    64A      1.713640    65A      1.744611  
      66A      1.785375    67A      1.814446    68A      1.836560  
      69A      1.857816    70A      1.958028    71A      2.004096  
      72A      2.019621    73A      2.078579    74A      2.139456  
      75A      2.161635    76A      2.243563    77A      2.264457  
      78A      2.368741    79A      2.397415    80A      2.441428  
      81A      2.470458    82A      2.538773    83A      2.597701  
      84A      2.682053    85A      2.819003    86A      2.944679  
      87A      3.012131    88A      3.055047    89A      3.104824  
      90A      3.229288    91A      3.672047  

    Final Occupation by Irrep:
              A 
    DOCC [    17 ]

  Energy converged.

  @DF-RKS Final Energy:  -210.39100251273072

   => Energetics <=

    Nuclear Repulsion Energy =            130.6393554083403785
    One-Electron Energy =                -544.1862932930773695
    Two-Electron Energy =                 226.6475592938506907
    DFT Exchange-Correlation Energy =     -23.4865819718444548
    Empirical Dispersion Energy =          -0.0050419500000000
    PCM Polarization Energy =               0.0000000000000000
    EFP Energy =                            0.0000000000000000
    Total Energy =                       -210.3910025127307222



Properties will be evaluated at   0.000000,   0.000000,   0.000000 Bohr

Properties computed using the SCF density matrix

  Nuclear Dipole Moment: (a.u.)
     X:   177.0276      Y:   -31.5210      Z:   -35.5332

  Electronic Dipole Moment: (a.u.)
     X:  -176.8433      Y:    31.9439      Z:    34.7072

  Dipole Moment: (a.u.)
     X:     0.1843      Y:     0.4229      Z:    -0.8260     Total:     0.9460

  Dipole Moment: (Debye)
     X:     0.4685      Y:     1.0749      Z:    -2.0994     Total:     2.4046


*** tstop() called on computer03 at Fri Sep 15 12:53:30 2017
Module time:
	user time   =      35.82 seconds =       0.60 minutes
	system time =       0.77 seconds =       0.01 minutes
	total time  =         19 seconds =       0.32 minutes
Total time:
	user time   =      35.82 seconds =       0.60 minutes
	system time =       0.77 seconds =       0.01 minutes
	total time  =         19 seconds =       0.32 minutes


Properties will be evaluated at   0.000000,   0.000000,   0.000000 Bohr

Properties computed using the  density matrix

  Nuclear Dipole Moment: (a.u.)
     X:   177.0276      Y:   -31.5210      Z:   -35.5332

  Electronic Dipole Moment: (a.u.)
     X:  -176.8433      Y:    31.9439      Z:    34.7072

  Dipole Moment: (a.u.)
     X:     0.1843      Y:     0.4229      Z:    -0.8260     Total:     0.9460

  Dipole Moment: (Debye)
     X:     0.4685      Y:     1.0749      Z:    -2.0994     Total:     2.4046

  Quadrupole Moment: (Debye Ang)
    XX:   -25.3860     YY:   -23.2827     ZZ:   -22.5964
    XY:     1.1869     XZ:    -6.6035     YZ:     0.2371

  Traceless Quadrupole Moment: (Debye Ang)
    XX:    -1.6309     YY:     0.4724     ZZ:     1.1586
    XY:     1.1869     XZ:    -6.6035     YZ:     0.2371

  Mulliken Charges: (a.u.)
   Center  Symbol    Alpha    Beta     Spin     Total
       1     O     4.13926  4.13926  0.00000 -0.27852
       2     C     2.92851  2.92851  0.00000  0.14298
       3     C     2.98454  2.98454  0.00000  0.03091
       4     N     3.59348  3.59348  0.00000 -0.18697
       5     H     0.43031  0.43031  0.00000  0.13937
       6     H     0.48880  0.48880  0.00000  0.02241
       7     H     0.50410  0.50410  0.00000 -0.00820
       8     H     0.51002  0.51002  0.00000 -0.02004
       9     H     0.48966  0.48966  0.00000  0.02069
      10     H     0.46714  0.46714  0.00000  0.06572
      11     H     0.46418  0.46418  0.00000  0.07164

   Total alpha = 17.00000, Total beta = 17.00000, Total charge = -0.00000


*** Psi4 exiting successfully. Buy a developer a beer!
