    -----------------------------------------------------------------------
          Psi4: An Open-Source Ab Initio Electronic Structure Package
                              Psi4 (no tag) Driver

                          Git: Rev {detached?}  

    J. M. Turney, A. C. Simmonett, R. M. Parrish, E. G. Hohenstein,
    F. A. Evangelista, J. T. Fermann, B. J. Mintz, L. A. Burns, J. J. Wilke,
    M. L. Abrams, N. J. Russ, M. L. Leininger, C. L. Janssen, E. T. Seidl,
    W. D. Allen, H. F. Schaefer, R. A. King, E. F. Valeev, C. D. Sherrill,
    and T. D. Crawford, WIREs Comput. Mol. Sci. 2, 556-565 (2012)
    (doi: 10.1002/wcms.93)

                         Additional Contributions by
    A. E. DePrince, M. Saitow, U. Bozkaya, A. Yu. Sokolov
    -----------------------------------------------------------------------


    Psi4 started on: Tue Jul  5 16:54:13 2016

    Process ID:  14769
    PSI4DATADIR: /export131/home/mjharvey/miniconda3/share
    Memory level set to 256.000 MB

  ==> Input File <==

--------------------------------------------------------------------------
set {
	reference rhf
	basis 6-31G*
}


set_num_threads( 1 )
memory 2 gb

molecule MOL {
0 1

H	 -2.422942	 1.093368	 2.608294
C	 -2.366356	 0.298073	 1.890684
C	 -1.285264	 0.151781	 1.160041
H	 -3.206245	 -0.363255	 1.789971
O	 -1.180634	 -0.819263	 0.215062
H	 -0.430683	 0.798839	 1.250605
C	 0.051604	 -1.018856	 -0.387932
C	 1.043764	 0.054862	 -0.001873
H	 -0.017620	 -1.041351	 -1.469781
H	 0.437898	 -1.966374	 -0.042284
F	 0.990529	 0.254188	 1.307035
F	 2.284001	 -0.290991	 -0.305236
F	 0.789209	 1.201364	 -0.597797

	symmetry c1
}
set optking {
	frozen_dihedral = ("
		11 8 7 9,
		6 3 2 1,
		6 3 5 7
	")
}

ee = energy('scf')
oeprop('DIPOLE', 'QUADRUPOLE', 'MULLIKEN_CHARGES')
f=open( 'psi4out.xyz', 'w' )
f.write( "13  " )
f.write( str(ee) + "\n" )
f.write( MOL.save_string_xyz() )
f.close()
--------------------------------------------------------------------------

  Memory set to   2.000 GiB by Python script.

*** tstart() called on cx1-3-14-4.cx1.hpc.ic.ac.uk
*** at Tue Jul  5 16:54:13 2016


         ---------------------------------------------------------
                                   SCF
            by Justin Turney, Rob Parrish, and Andy Simmonett
                              RHF Reference
                        1 Threads,   2000 MiB Core
         ---------------------------------------------------------

  ==> Geometry <==

    Molecular point group: c1
    Full point group: C1

    Geometry (in Angstrom), charge = 0, multiplicity = 1:

       Center              X                  Y                   Z               Mass       
    ------------   -----------------  -----------------  -----------------  -----------------
           H         -2.597200485228     1.082571035956     2.233654723290     1.007825032070
           C         -2.540614485228     0.287276035956     1.516044723290    12.000000000000
           C         -1.459522485228     0.140984035956     0.785401723290    12.000000000000
           H         -3.380503485228    -0.374051964044     1.415331723290     1.007825032070
           O         -1.354892485228    -0.830059964044    -0.159577276710    15.994914619560
           H         -0.604941485228     0.788042035956     0.875965723290     1.007825032070
           C         -0.122654485228    -1.029652964044    -0.762571276710    12.000000000000
           C          0.869505514772     0.044065035956    -0.376512276710    12.000000000000
           H         -0.191878485228    -1.052147964044    -1.844420276710     1.007825032070
           H          0.263639514772    -1.977170964044    -0.416923276710     1.007825032070
           F          0.816270514772     0.243391035956     0.932395723290    18.998403224000
           F          2.109742514772    -0.301787964044    -0.679875276710    18.998403224000
           F          0.614950514772     1.190567035956    -0.972436276710    18.998403224000

  Running in c1 symmetry.

  Rotational constants: A =      0.14331  B =      0.04780  C =      0.04431 [cm^-1]
  Rotational constants: A =   4296.34043  B =   1432.88549  C =   1328.49894 [MHz]
  Nuclear repulsion =  427.011541989867851

  Charge       = 0
  Multiplicity = 1
  Electrons    = 64
  Nalpha       = 32
  Nbeta        = 32

  ==> Algorithm <==

  SCF Algorithm Type is DF.
  DIIS enabled.
  MOM disabled.
  Fractional occupation disabled.
  Guess Type is CORE.
  Energy threshold   = 1.00e-06
  Density threshold  = 1.00e-06
  Integral threshold = 0.00e+00

  ==> Primary Basis <==

  Basis Set: 6-31G*
    Number of shells: 58
    Number of basis function: 130
    Number of Cartesian functions: 130
    Spherical Harmonics?: false
    Max angular momentum: 2

  ==> Pre-Iterations <==

   -------------------------------------------------------
    Irrep   Nso     Nmo     Nalpha   Nbeta   Ndocc  Nsocc
   -------------------------------------------------------
     A        130     130       0       0       0       0
   -------------------------------------------------------
    Total     130     130      32      32      32       0
   -------------------------------------------------------

 OEINTS: Overlap, kinetic, potential, dipole, and quadrupole integrals
         stored in file 35.

  ==> Integral Setup <==

  ==> DFJK: Density-Fitted J/K Matrices <==

    J tasked:                  Yes
    K tasked:                  Yes
    wK tasked:                  No
    OpenMP threads:              1
    Integrals threads:           1
    Memory (MB):              1430
    Algorithm:                Core
    Integral Cache:           NONE
    Schwarz Cutoff:          1E-12
    Fitting Condition:       1E-12

   => Auxiliary Basis Set <=

  Basis Set: 
    Number of shells: 237
    Number of basis function: 773
    Number of Cartesian functions: 773
    Spherical Harmonics?: false
    Max angular momentum: 3

  Minimum eigenvalue in the overlap matrix is 1.8173228183E-03.
  Using Symmetric Orthogonalization.
  SCF Guess: Core (One-Electron) Hamiltonian.

  ==> Iterations <==

                           Total Energy        Delta E     RMS |[F,P]|

   @DF-RHF iter   1:  -450.27075948389108   -4.50271e+02   7.26793e-02 
   @DF-RHF iter   2:  -199.56491626716286    2.50706e+02   9.95298e-02 DIIS
   @DF-RHF iter   3:  -486.12318758950948   -2.86558e+02   4.48101e-02 DIIS
   @DF-RHF iter   4:  -446.19020524906716    3.99330e+01   6.46956e-02 DIIS
   @DF-RHF iter   5:  -524.16824279029277   -7.79780e+01   1.62665e-02 DIIS
   @DF-RHF iter   6:  -527.12819952363145   -2.95996e+00   7.31843e-03 DIIS
   @DF-RHF iter   7:  -527.46541169283921   -3.37212e-01   1.38981e-03 DIIS
   @DF-RHF iter   8:  -527.47975457788777   -1.43429e-02   5.73276e-04 DIIS
   @DF-RHF iter   9:  -527.48285651927142   -3.10194e-03   2.70216e-04 DIIS
   @DF-RHF iter  10:  -527.48345620185182   -5.99683e-04   1.44348e-04 DIIS
   @DF-RHF iter  11:  -527.48369742944863   -2.41228e-04   3.28570e-05 DIIS
   @DF-RHF iter  12:  -527.48371152273251   -1.40933e-05   1.22478e-05 DIIS
   @DF-RHF iter  13:  -527.48371422442858   -2.70170e-06   4.26048e-06 DIIS
   @DF-RHF iter  14:  -527.48371454252083   -3.18092e-07   1.04506e-06 DIIS
   @DF-RHF iter  15:  -527.48371456757366   -2.50528e-08   3.93533e-07 DIIS

  ==> Post-Iterations <==

    Orbital Energies (a.u.)
    -----------------------

    Doubly Occupied:                                                      

       1A    -26.361893     2A    -26.361209     3A    -26.359714  
       4A    -20.602304     5A    -11.521403     6A    -11.321079  
       7A    -11.273579     8A    -11.199298     9A     -1.765246  
      10A     -1.666860    11A     -1.656829    12A     -1.434500  
      13A     -1.084649    14A     -1.014300    15A     -0.940800  
      16A     -0.877053    17A     -0.852766    18A     -0.838466  
      19A     -0.772135    20A     -0.738539    21A     -0.721007  
      22A     -0.713974    23A     -0.692683    24A     -0.667386  
      25A     -0.663410    26A     -0.656319    27A     -0.643860  
      28A     -0.576003    29A     -0.550400    30A     -0.525516  
      31A     -0.484426    32A     -0.337093  

    Virtual:                                                              

      33A      0.210146    34A      0.247309    35A      0.269727  
      36A      0.285481    37A      0.294604    38A      0.333127  
      39A      0.367612    40A      0.409605    41A      0.412693  
      42A      0.441928    43A      0.469294    44A      0.509021  
      45A      0.531188    46A      0.685447    47A      0.714205  
      48A      0.723147    49A      0.746172    50A      0.777371  
      51A      0.787221    52A      0.839706    53A      0.848358  
      54A      0.867958    55A      0.893533    56A      0.944454  
      57A      0.977805    58A      1.081636    59A      1.107980  
      60A      1.137896    61A      1.147525    62A      1.215440  
      63A      1.225213    64A      1.252054    65A      1.287470  
      66A      1.319622    67A      1.369644    68A      1.393696  
      69A      1.430939    70A      1.447227    71A      1.468943  
      72A      1.496210    73A      1.523838    74A      1.605754  
      75A      1.617215    76A      1.640978    77A      1.644201  
      78A      1.660872    79A      1.665392    80A      1.728896  
      81A      1.754559    82A      1.819626    83A      1.895973  
      84A      1.934548    85A      1.958572    86A      2.029802  
      87A      2.052064    88A      2.077692    89A      2.103505  
      90A      2.115984    91A      2.128187    92A      2.178118  
      93A      2.246908    94A      2.258185    95A      2.265810  
      96A      2.309202    97A      2.325790    98A      2.349616  
      99A      2.364053   100A      2.390551   101A      2.392751  
     102A      2.491901   103A      2.504051   104A      2.555290  
     105A      2.571506   106A      2.611275   107A      2.639069  
     108A      2.673253   109A      2.729826   110A      2.822077  
     111A      2.852054   112A      2.903585   113A      3.003941  
     114A      3.104153   115A      3.136563   116A      3.145190  
     117A      3.191296   118A      3.350542   119A      3.395437  
     120A      3.417551   121A      3.489157   122A      3.496386  
     123A      4.485760   124A      4.582219   125A      4.618830  
     126A      4.785652   127A      4.841163   128A      4.923846  
     129A      5.389208   130A      5.797434  

    Final Occupation by Irrep:
              A 
    DOCC [    32 ]

  Energy converged.

  @DF-RHF Final Energy:  -527.48371456757366

   => Energetics <=

    Nuclear Repulsion Energy =            427.0115419898678510
    One-Electron Energy =               -1577.2411026185595802
    Two-Electron Energy =                 622.7458460611181863
    DFT Exchange-Correlation Energy =       0.0000000000000000
    Empirical Dispersion Energy =           0.0000000000000000
    PCM Polarization Energy =               0.0000000000000000
    EFP Energy =                            0.0000000000000000
    Total Energy =                       -527.4837145675734291

    Alert: EFP and PCM quantities not currently incorporated into SCF psivars.

Properties will be evaluated at   0.000000,   0.000000,   0.000000 Bohr
  ==> Properties <==


Properties computed using the SCF density matrix

  Nuclear Dipole Moment: (a.u.)
     X:    -9.4506      Y:    -2.5089      Z:     2.8004

  Electronic Dipole Moment: (a.u.)
     X:     9.8243      Y:     2.2366      Z:    -3.0827

  Dipole Moment: (a.u.)
     X:     0.3736      Y:    -0.2724      Z:    -0.2822     Total:     0.5417

  Dipole Moment: (Debye)
     X:     0.9497      Y:    -0.6923      Z:    -0.7174     Total:     1.3769


  Saving occupied orbitals to File 180.

*** tstop() called on cx1-3-14-4.cx1.hpc.ic.ac.uk at Tue Jul  5 16:54:24 2016
Module time:
	user time   =       9.95 seconds =       0.17 minutes
	system time =       0.06 seconds =       0.00 minutes
	total time  =         11 seconds =       0.18 minutes
Total time:
	user time   =       9.95 seconds =       0.17 minutes
	system time =       0.06 seconds =       0.00 minutes
	total time  =         11 seconds =       0.18 minutes


Properties will be evaluated at   0.000000,   0.000000,   0.000000 Bohr

Properties computed using the  density matrix

  Nuclear Dipole Moment: (a.u.)
     X:    -9.4506      Y:    -2.5089      Z:     2.8004

  Electronic Dipole Moment: (a.u.)
     X:     9.8243      Y:     2.2366      Z:    -3.0827

  Dipole Moment: (a.u.)
     X:     0.3736      Y:    -0.2724      Z:    -0.2822     Total:     0.5417

  Dipole Moment: (Debye)
     X:     0.9497      Y:    -0.6923      Z:    -0.7174     Total:     1.3769

  Quadrupole Moment: (Debye Ang)
    XX:   -49.2749     YY:   -43.5728     ZZ:   -43.5537
    XY:    -1.3881     XZ:    -0.4324     YZ:     2.7509

  Traceless Quadrupole Moment: (Debye Ang)
    XX:    -3.8078     YY:     1.8943     ZZ:     1.9135
    XY:    -1.3881     XZ:    -0.4324     YZ:     2.7509

  Mulliken Charges: (a.u.)
   Center  Symbol    Alpha    Beta     Spin     Total
       1     H     0.41074  0.41074  0.00000  0.17852
       2     C     3.24856  3.24856  0.00000 -0.49712
       3     C     2.91046  2.91046  0.00000  0.17908
       4     H     0.40929  0.40929  0.00000  0.18143
       5     O     4.31609  4.31609  0.00000 -0.63218
       6     H     0.36769  0.36769  0.00000  0.26462
       7     C     3.01740  3.01740  0.00000 -0.03479
       8     C     2.48899  2.48899  0.00000  1.02202
       9     H     0.39803  0.39803  0.00000  0.20394
      10     H     0.40093  0.40093  0.00000  0.19813
      11     F     4.67938  4.67938  0.00000 -0.35876
      12     F     4.67766  4.67766  0.00000 -0.35531
      13     F     4.67479  4.67479  0.00000 -0.34959

   Total alpha = 32.00000, Total beta = 32.00000, Total charge = -0.00000


*** PSI4 exiting successfully. Buy a developer a beer!
