    -----------------------------------------------------------------------
          Psi4: An Open-Source Ab Initio Electronic Structure Package
                              Psi4 (no tag) Driver

                          Git: Rev {detached?}  

    J. M. Turney, A. C. Simmonett, R. M. Parrish, E. G. Hohenstein,
    F. A. Evangelista, J. T. Fermann, B. J. Mintz, L. A. Burns, J. J. Wilke,
    M. L. Abrams, N. J. Russ, M. L. Leininger, C. L. Janssen, E. T. Seidl,
    W. D. Allen, H. F. Schaefer, R. A. King, E. F. Valeev, C. D. Sherrill,
    and T. D. Crawford, WIREs Comput. Mol. Sci. 2, 556-565 (2012)
    (doi: 10.1002/wcms.93)

                         Additional Contributions by
    A. E. DePrince, M. Saitow, U. Bozkaya, A. Yu. Sokolov
    -----------------------------------------------------------------------


    Psi4 started on: Tue Jul  5 16:49:05 2016

    Process ID:  14003
    PSI4DATADIR: /export131/home/mjharvey/miniconda3/share
    Memory level set to 256.000 MB

  ==> Input File <==

--------------------------------------------------------------------------
set {
	reference rhf
	basis 6-31G*
}


set_num_threads( 1 )
memory 2 gb

molecule MOL {
0 1

H	 -2.153054	 -2.250733	 0.000000
O	 -2.462445	 -1.355403	 0.000000
C	 -1.434260	 -0.483044	 0.000000
C	 -0.335213	 -0.792255	 0.794477
C	 -1.442141	 0.679094	 -0.747853
H	 -0.351477	 -1.700601	 1.366837
C	 0.747321	 0.062105	 0.835497
H	 -2.285489	 0.929997	 -1.366213
C	 -0.341825	 1.531156	 -0.695709
H	 1.592464	 -0.183964	 1.451738
C	 0.757720	 1.233713	 0.091508
C	 -0.357739	 2.745040	 -1.481032
H	 1.598267	 1.900171	 0.121388
N	 -0.372607	 3.698321	 -2.099044

	symmetry c1
}
set optking {
	frozen_dihedral = ("
		14 12 9 5
	")
}

ee = energy('scf')
oeprop('DIPOLE', 'QUADRUPOLE', 'MULLIKEN_CHARGES')
f=open( 'psi4out.xyz', 'w' )
f.write( "14  " )
f.write( str(ee) + "\n" )
f.write( MOL.save_string_xyz() )
f.close()
--------------------------------------------------------------------------

  Memory set to   2.000 GiB by Python script.

*** tstart() called on cx1-3-4-4.cx1.hpc.ic.ac.uk
*** at Tue Jul  5 16:49:06 2016


         ---------------------------------------------------------
                                   SCF
            by Justin Turney, Rob Parrish, and Andy Simmonett
                              RHF Reference
                        1 Threads,   2000 MiB Core
         ---------------------------------------------------------

  ==> Geometry <==

    Molecular point group: c1
    Full point group: C1

    Geometry (in Angstrom), charge = 0, multiplicity = 1:

       Center              X                  Y                   Z               Mass       
    ------------   -----------------  -----------------  -----------------  -----------------
           H         -1.522244952079    -2.994221059298     0.354883838191     1.007825032070
           O         -1.831635952079    -2.098891059298     0.354883838191    15.994914619560
           C         -0.803450952079    -1.226532059298     0.354883838191    12.000000000000
           C          0.295596047921    -1.535743059298     1.149360838191    12.000000000000
           C         -0.811331952079    -0.064394059298    -0.392969161809    12.000000000000
           H          0.279332047921    -2.444089059298     1.721720838191     1.007825032070
           C          1.378130047921    -0.681383059298     1.190380838191    12.000000000000
           H         -1.654679952079     0.186508940702    -1.011329161809     1.007825032070
           C          0.288984047921     0.787667940702    -0.340825161809    12.000000000000
           H          2.223273047921    -0.927452059298     1.806621838191     1.007825032070
           C          1.388529047921     0.490224940702     0.446391838191    12.000000000000
           C          0.273070047921     2.001551940702    -1.126148161809    12.000000000000
           H          2.229076047921     1.156682940702     0.476271838191     1.007825032070
           N          0.258202047921     2.954832940702    -1.744160161809    14.003074004780

  Running in c1 symmetry.

  Rotational constants: A =      0.11834  B =      0.04013  C =      0.03000 [cm^-1]
  Rotational constants: A =   3547.63299  B =   1203.16232  C =    899.45112 [MHz]
  Nuclear repulsion =  379.289259905194399

  Charge       = 0
  Multiplicity = 1
  Electrons    = 62
  Nalpha       = 31
  Nbeta        = 31

  ==> Algorithm <==

  SCF Algorithm Type is DF.
  DIIS enabled.
  MOM disabled.
  Fractional occupation disabled.
  Guess Type is CORE.
  Energy threshold   = 1.00e-06
  Density threshold  = 1.00e-06
  Integral threshold = 0.00e+00

  ==> Primary Basis <==

  Basis Set: 6-31G*
    Number of shells: 64
    Number of basis function: 145
    Number of Cartesian functions: 145
    Spherical Harmonics?: false
    Max angular momentum: 2

  ==> Pre-Iterations <==

   -------------------------------------------------------
    Irrep   Nso     Nmo     Nalpha   Nbeta   Ndocc  Nsocc
   -------------------------------------------------------
     A        145     145       0       0       0       0
   -------------------------------------------------------
    Total     145     145      31      31      31       0
   -------------------------------------------------------

 OEINTS: Overlap, kinetic, potential, dipole, and quadrupole integrals
         stored in file 35.

  ==> Integral Setup <==

  ==> DFJK: Density-Fitted J/K Matrices <==

    J tasked:                  Yes
    K tasked:                  Yes
    wK tasked:                  No
    OpenMP threads:              1
    Integrals threads:           1
    Memory (MB):              1430
    Algorithm:                Core
    Integral Cache:           NONE
    Schwarz Cutoff:          1E-12
    Fitting Condition:       1E-12

   => Auxiliary Basis Set <=

  Basis Set: 
    Number of shells: 261
    Number of basis function: 854
    Number of Cartesian functions: 854
    Spherical Harmonics?: false
    Max angular momentum: 3

  Minimum eigenvalue in the overlap matrix is 4.1813240612E-04.
  Using Symmetric Orthogonalization.
  SCF Guess: Core (One-Electron) Hamiltonian.

  ==> Iterations <==

                           Total Energy        Delta E     RMS |[F,P]|

   @DF-RHF iter   1:  -309.66967819732395   -3.09670e+02   6.49309e-02 
   @DF-RHF iter   2:  -147.66666497307108    1.62003e+02   7.80055e-02 DIIS
   @DF-RHF iter   3:  -319.21013266647014   -1.71543e+02   5.29298e-02 DIIS
   @DF-RHF iter   4:  -341.51780703085922   -2.23077e+01   5.47014e-02 DIIS
   @DF-RHF iter   5:  -393.57024000506851   -5.20524e+01   1.46406e-02 DIIS
   @DF-RHF iter   6:  -388.90846060593356    4.66178e+00   1.90527e-02 DIIS
   @DF-RHF iter   7:  -397.03807395627189   -8.12961e+00   5.24280e-03 DIIS
   @DF-RHF iter   8:  -397.22787551837291   -1.89802e-01   1.94626e-03 DIIS
   @DF-RHF iter   9:  -397.27055024849699   -4.26747e-02   1.09375e-03 DIIS
   @DF-RHF iter  10:  -397.28477864917909   -1.42284e-02   4.16546e-04 DIIS
   @DF-RHF iter  11:  -397.28753586436426   -2.75722e-03   1.30662e-04 DIIS
   @DF-RHF iter  12:  -397.28780818053167   -2.72316e-04   3.97792e-05 DIIS
   @DF-RHF iter  13:  -397.28782832852835   -2.01480e-05   1.50331e-05 DIIS
   @DF-RHF iter  14:  -397.28783246295689   -4.13443e-06   7.09079e-06 DIIS
   @DF-RHF iter  15:  -397.28783346051353   -9.97557e-07   3.02810e-06 DIIS
   @DF-RHF iter  16:  -397.28783384014685   -3.79633e-07   1.23291e-06 DIIS
   @DF-RHF iter  17:  -397.28783393624849   -9.61016e-08   5.14672e-07 DIIS

  ==> Post-Iterations <==

    Orbital Energies (a.u.)
    -----------------------

    Doubly Occupied:                                                      

       1A    -20.606024     2A    -15.574498     3A    -11.323065  
       4A    -11.293954     5A    -11.275741     6A    -11.263630  
       7A    -11.261963     8A    -11.261417     9A    -11.257680  
      10A     -1.429251    11A     -1.232254    12A     -1.182154  
      13A     -1.062792    14A     -1.039224    15A     -0.895826  
      16A     -0.859685    17A     -0.791088    18A     -0.715438  
      19A     -0.689657    20A     -0.681404    21A     -0.631800  
      22A     -0.619937    23A     -0.576275    24A     -0.565544  
      25A     -0.546717    26A     -0.540721    27A     -0.512205  
      28A     -0.474574    29A     -0.471652    30A     -0.362788  
      31A     -0.342065  

    Virtual:                                                              

      32A      0.085328    33A      0.129689    34A      0.205902  
      35A      0.220888    36A      0.222796    37A      0.274191  
      38A      0.280139    39A      0.290841    40A      0.327404  
      41A      0.367972    42A      0.378255    43A      0.441269  
      44A      0.449032    45A      0.469160    46A      0.484927  
      47A      0.575023    48A      0.601256    49A      0.633660  
      50A      0.702982    51A      0.713460    52A      0.717471  
      53A      0.759512    54A      0.783794    55A      0.794248  
      56A      0.803049    57A      0.804276    58A      0.826847  
      59A      0.853847    60A      0.859752    61A      0.871249  
      62A      0.889153    63A      0.893157    64A      0.937051  
      65A      0.954940    66A      0.995594    67A      1.021313  
      68A      1.064462    69A      1.084171    70A      1.093058  
      71A      1.103800    72A      1.112682    73A      1.126432  
      74A      1.134278    75A      1.162072    76A      1.180214  
      77A      1.212209    78A      1.248930    79A      1.264198  
      80A      1.336597    81A      1.376366    82A      1.385942  
      83A      1.428192    84A      1.443984    85A      1.465627  
      86A      1.487050    87A      1.521186    88A      1.590250  
      89A      1.600548    90A      1.658031    91A      1.686722  
      92A      1.712982    93A      1.733348    94A      1.738765  
      95A      1.800201    96A      1.806725    97A      1.842288  
      98A      1.950201    99A      2.045031   100A      2.063748  
     101A      2.084673   102A      2.108860   103A      2.131168  
     104A      2.163072   105A      2.228960   106A      2.242720  
     107A      2.259106   108A      2.284354   109A      2.292900  
     110A      2.298291   111A      2.330491   112A      2.389980  
     113A      2.431054   114A      2.440701   115A      2.474078  
     116A      2.525237   117A      2.549981   118A      2.608852  
     119A      2.622694   120A      2.757719   121A      2.835958  
     122A      2.852999   123A      2.866839   124A      2.914653  
     125A      2.997037   126A      3.016798   127A      3.025980  
     128A      3.096169   129A      3.141788   130A      3.169033  
     131A      3.207602   132A      3.286964   133A      3.379849  
     134A      3.564172   135A      3.673915   136A      3.869065  
     137A      4.326341   138A      4.465457   139A      4.506924  
     140A      4.559870   141A      4.613376   142A      4.720423  
     143A      4.828686   144A      4.970488   145A      5.257276  

    Final Occupation by Irrep:
              A 
    DOCC [    31 ]

  Energy converged.

  @DF-RHF Final Energy:  -397.28783393624849

   => Energetics <=

    Nuclear Repulsion Energy =            379.2892599051943989
    One-Electron Energy =               -1290.4721291780972479
    Two-Electron Energy =                 513.8950353366545869
    DFT Exchange-Correlation Energy =       0.0000000000000000
    Empirical Dispersion Energy =           0.0000000000000000
    PCM Polarization Energy =               0.0000000000000000
    EFP Energy =                            0.0000000000000000
    Total Energy =                       -397.2878339362482620

    Alert: EFP and PCM quantities not currently incorporated into SCF psivars.

Properties will be evaluated at   0.000000,   0.000000,   0.000000 Bohr
  ==> Properties <==


Properties computed using the SCF density matrix

  Nuclear Dipole Moment: (a.u.)
     X:     1.4480      Y:    -4.7272      Z:     3.1456

  Electronic Dipole Moment: (a.u.)
     X:    -0.9322      Y:     2.7817      Z:    -2.1577

  Dipole Moment: (a.u.)
     X:     0.5158      Y:    -1.9455      Z:     0.9879     Total:     2.2420

  Dipole Moment: (Debye)
     X:     1.3110      Y:    -4.9449      Z:     2.5109     Total:     5.6987


  Saving occupied orbitals to File 180.

*** tstop() called on cx1-3-4-4.cx1.hpc.ic.ac.uk at Tue Jul  5 16:49:24 2016
Module time:
	user time   =      16.94 seconds =       0.28 minutes
	system time =       0.09 seconds =       0.00 minutes
	total time  =         18 seconds =       0.30 minutes
Total time:
	user time   =      16.94 seconds =       0.28 minutes
	system time =       0.09 seconds =       0.00 minutes
	total time  =         18 seconds =       0.30 minutes


Properties will be evaluated at   0.000000,   0.000000,   0.000000 Bohr

Properties computed using the  density matrix

  Nuclear Dipole Moment: (a.u.)
     X:     1.4480      Y:    -4.7272      Z:     3.1456

  Electronic Dipole Moment: (a.u.)
     X:    -0.9322      Y:     2.7817      Z:    -2.1577

  Dipole Moment: (a.u.)
     X:     0.5158      Y:    -1.9455      Z:     0.9879     Total:     2.2420

  Dipole Moment: (Debye)
     X:     1.3110      Y:    -4.9449      Z:     2.5109     Total:     5.6987

  Quadrupole Moment: (Debye Ang)
    XX:   -50.7465     YY:   -54.4151     ZZ:   -55.2496
    XY:    -0.4302     XZ:     4.2357     YZ:     4.7328

  Traceless Quadrupole Moment: (Debye Ang)
    XX:     2.7239     YY:    -0.9447     ZZ:    -1.7792
    XY:    -0.4302     XZ:     4.2357     YZ:     4.7328

  Mulliken Charges: (a.u.)
   Center  Symbol    Alpha    Beta     Spin     Total
       1     H     0.26760  0.26760  0.00000  0.46480
       2     O     4.38096  4.38096  0.00000 -0.76193
       3     C     2.79487  2.79487  0.00000  0.41026
       4     C     3.12899  3.12899  0.00000 -0.25798
       5     C     3.11289  3.11289  0.00000 -0.22578
       6     H     0.39298  0.39298  0.00000  0.21404
       7     C     3.09709  3.09709  0.00000 -0.19418
       8     H     0.37421  0.37421  0.00000  0.25157
       9     C     2.99349  2.99349  0.00000  0.01302
      10     H     0.38960  0.38960  0.00000  0.22081
      11     C     3.09649  3.09649  0.00000 -0.19298
      12     C     2.86546  2.86546  0.00000  0.26907
      13     H     0.38071  0.38071  0.00000  0.23857
      14     N     3.72465  3.72465  0.00000 -0.44930

   Total alpha = 31.00000, Total beta = 31.00000, Total charge = -0.00000


*** PSI4 exiting successfully. Buy a developer a beer!
