    -----------------------------------------------------------------------
          Psi4: An Open-Source Ab Initio Electronic Structure Package
                              Psi4 (no tag) Driver

                          Git: Rev {detached?}  

    J. M. Turney, A. C. Simmonett, R. M. Parrish, E. G. Hohenstein,
    F. A. Evangelista, J. T. Fermann, B. J. Mintz, L. A. Burns, J. J. Wilke,
    M. L. Abrams, N. J. Russ, M. L. Leininger, C. L. Janssen, E. T. Seidl,
    W. D. Allen, H. F. Schaefer, R. A. King, E. F. Valeev, C. D. Sherrill,
    and T. D. Crawford, WIREs Comput. Mol. Sci. 2, 556-565 (2012)
    (doi: 10.1002/wcms.93)

                         Additional Contributions by
    A. E. DePrince, M. Saitow, U. Bozkaya, A. Yu. Sokolov
    -----------------------------------------------------------------------


    Psi4 started on: Tue Jul  5 16:45:21 2016

    Process ID:  25524
    PSI4DATADIR: /export131/home/mjharvey/miniconda3/share
    Memory level set to 256.000 MB

  ==> Input File <==

--------------------------------------------------------------------------
set {
	reference rhf
	basis 6-31G*
}


set_num_threads( 1 )
memory 2 gb

molecule MOL {
0 1

H	 -2.145923	 3.608962	 0.843364
N	 -1.265624	 3.212699	 1.110937
C	 -1.460920	 1.975768	 1.853490
H	 -0.802449	 3.894930	 1.680901
C	 -0.435163	 0.928932	 1.431930
H	 -2.458596	 1.610775	 1.629255
H	 -1.414112	 2.113505	 2.936650
C	 -0.679275	 0.379305	 0.025956
H	 0.554019	 1.373218	 1.494890
H	 -0.450378	 0.107436	 2.147646
C	 -0.791153	 1.473151	 -1.037697
H	 -1.591837	 -0.214897	 0.024303
H	 0.126996	 -0.300826	 -0.244591
C	 -2.115055	 2.234023	 -0.975523
H	 0.033362	 2.173024	 -0.921214
H	 -0.676491	 1.028719	 -2.024099
H	 -2.243718	 2.718807	 -0.011807
H	 -2.163946	 3.002377	 -1.740928
H	 -2.958889	 1.565841	 -1.123406

	symmetry c1
}
set optking {
	frozen_dihedral = ("
		6 3 5 9,
		12 8 5 9,
		12 8 11 15
	")
}

ee = energy('scf')
oeprop('DIPOLE', 'QUADRUPOLE', 'MULLIKEN_CHARGES')
f=open( 'psi4out.xyz', 'w' )
f.write( "19  " )
f.write( str(ee) + "\n" )
f.write( MOL.save_string_xyz() )
f.close()
--------------------------------------------------------------------------

  Memory set to   2.000 GiB by Python script.

*** tstart() called on cx1-3-3-2.cx1.hpc.ic.ac.uk
*** at Tue Jul  5 16:45:21 2016


         ---------------------------------------------------------
                                   SCF
            by Justin Turney, Rob Parrish, and Andy Simmonett
                              RHF Reference
                        1 Threads,   2000 MiB Core
         ---------------------------------------------------------

  ==> Geometry <==

    Molecular point group: c1
    Full point group: C1

    Geometry (in Angstrom), charge = 0, multiplicity = 1:

       Center              X                  Y                   Z               Mass       
    ------------   -----------------  -----------------  -----------------  -----------------
           H         -0.999946155798     1.866909113965     0.431652174619     1.007825032070
           N         -0.119647155798     1.470646113965     0.699225174619    14.003074004780
           C         -0.314943155798     0.233715113965     1.441778174619    12.000000000000
           H          0.343527844202     2.152877113965     1.269189174619     1.007825032070
           C          0.710813844202    -0.813120886035     1.020218174619    12.000000000000
           H         -1.312619155798    -0.131277886035     1.217543174619     1.007825032070
           H         -0.268135155798     0.371452113965     2.524938174619     1.007825032070
           C          0.466701844202    -1.362747886035    -0.385755825381    12.000000000000
           H          1.699995844202    -0.368834886035     1.083178174619     1.007825032070
           H          0.695598844202    -1.634616886035     1.735934174619     1.007825032070
           C          0.354823844202    -0.268901886035    -1.449408825381    12.000000000000
           H         -0.445860155798    -1.956949886035    -0.387408825381     1.007825032070
           H          1.272972844202    -2.042878886035    -0.656302825381     1.007825032070
           C         -0.969078155798     0.491970113965    -1.387234825381    12.000000000000
           H          1.179338844202     0.430971113965    -1.332925825381     1.007825032070
           H          0.469485844202    -0.713333886035    -2.435810825381     1.007825032070
           H         -1.097741155798     0.976754113965    -0.423518825381     1.007825032070
           H         -1.017969155798     1.260324113965    -2.152639825381     1.007825032070
           H         -1.812912155798    -0.176211886035    -1.535117825381     1.007825032070

  Running in c1 symmetry.

  Rotational constants: A =      0.13872  B =      0.11367  C =      0.07351 [cm^-1]
  Rotational constants: A =   4158.76452  B =   3407.86729  C =   2203.71779 [MHz]
  Nuclear repulsion =  271.196417701957614

  Charge       = 0
  Multiplicity = 1
  Electrons    = 50
  Nalpha       = 25
  Nbeta        = 25

  ==> Algorithm <==

  SCF Algorithm Type is DF.
  DIIS enabled.
  MOM disabled.
  Fractional occupation disabled.
  Guess Type is CORE.
  Energy threshold   = 1.00e-06
  Density threshold  = 1.00e-06
  Integral threshold = 0.00e+00

  ==> Primary Basis <==

  Basis Set: 6-31G*
    Number of shells: 62
    Number of basis function: 116
    Number of Cartesian functions: 116
    Spherical Harmonics?: false
    Max angular momentum: 2

  ==> Pre-Iterations <==

   -------------------------------------------------------
    Irrep   Nso     Nmo     Nalpha   Nbeta   Ndocc  Nsocc
   -------------------------------------------------------
     A        116     116       0       0       0       0
   -------------------------------------------------------
    Total     116     116      25      25      25       0
   -------------------------------------------------------

 OEINTS: Overlap, kinetic, potential, dipole, and quadrupole integrals
         stored in file 35.

  ==> Integral Setup <==

  ==> DFJK: Density-Fitted J/K Matrices <==

    J tasked:                  Yes
    K tasked:                  Yes
    wK tasked:                  No
    OpenMP threads:              1
    Integrals threads:           1
    Memory (MB):              1430
    Algorithm:                Core
    Integral Cache:           NONE
    Schwarz Cutoff:          1E-12
    Fitting Condition:       1E-12

   => Auxiliary Basis Set <=

  Basis Set: 
    Number of shells: 261
    Number of basis function: 811
    Number of Cartesian functions: 811
    Spherical Harmonics?: false
    Max angular momentum: 3

  Minimum eigenvalue in the overlap matrix is 4.6139156342E-03.
  Using Symmetric Orthogonalization.
  SCF Guess: Core (One-Electron) Hamiltonian.

  ==> Iterations <==

                           Total Energy        Delta E     RMS |[F,P]|

   @DF-RHF iter   1:  -195.20683113882814   -1.95207e+02   7.15714e-02 
   @DF-RHF iter   2:  -166.97919858225987    2.82276e+01   6.50306e-02 DIIS
   @DF-RHF iter   3:  -213.67703693443599   -4.66978e+01   4.32229e-02 DIIS
   @DF-RHF iter   4:  -217.18202764842061   -3.50499e+00   5.48320e-02 DIIS
   @DF-RHF iter   5:  -251.01994500698362   -3.38379e+01   5.64766e-03 DIIS
   @DF-RHF iter   6:  -251.22681103574229   -2.06866e-01   2.57595e-03 DIIS
   @DF-RHF iter   7:  -251.26405750393161   -3.72465e-02   1.14301e-03 DIIS
   @DF-RHF iter   8:  -251.27461222071162   -1.05547e-02   4.26515e-04 DIIS
   @DF-RHF iter   9:  -251.27619499573933   -1.58278e-03   1.48502e-04 DIIS
   @DF-RHF iter  10:  -251.27640421634356   -2.09221e-04   3.39935e-05 DIIS
   @DF-RHF iter  11:  -251.27641665691027   -1.24406e-05   1.02164e-05 DIIS
   @DF-RHF iter  12:  -251.27641769029577   -1.03339e-06   3.77401e-06 DIIS
   @DF-RHF iter  13:  -251.27641787028762   -1.79992e-07   5.72667e-07 DIIS

  ==> Post-Iterations <==

    Orbital Energies (a.u.)
    -----------------------

    Doubly Occupied:                                                      

       1A    -15.536349     2A    -11.245718     3A    -11.207406  
       4A    -11.203377     5A    -11.195002     6A    -11.174434  
       7A     -1.202606     8A     -1.059121     9A     -0.994453  
      10A     -0.897753    11A     -0.824806    12A     -0.770539  
      13A     -0.704619    14A     -0.645971    15A     -0.607736  
      16A     -0.573354    17A     -0.562905    18A     -0.540619  
      19A     -0.518342    20A     -0.501581    21A     -0.472779  
      22A     -0.450237    23A     -0.441418    24A     -0.428556  
      25A     -0.374779  

    Virtual:                                                              

      26A      0.227808    27A      0.253827    28A      0.264183  
      29A      0.289550    30A      0.293421    31A      0.312665  
      32A      0.320688    33A      0.339056    34A      0.346356  
      35A      0.351002    36A      0.358442    37A      0.381171  
      38A      0.412708    39A      0.421972    40A      0.431321  
      41A      0.457210    42A      0.476522    43A      0.496901  
      44A      0.729874    45A      0.734675    46A      0.748079  
      47A      0.767868    48A      0.789612    49A      0.810230  
      50A      0.864345    51A      0.921653    52A      0.935888  
      53A      0.946618    54A      0.992278    55A      1.003973  
      56A      1.023589    57A      1.058762    58A      1.097823  
      59A      1.107840    60A      1.129556    61A      1.159453  
      62A      1.175202    63A      1.179097    64A      1.187831  
      65A      1.198611    66A      1.213764    67A      1.232176  
      68A      1.242996    69A      1.252220    70A      1.263852  
      71A      1.274115    72A      1.292326    73A      1.309802  
      74A      1.381375    75A      1.442905    76A      1.598755  
      77A      1.632156    78A      1.701096    79A      1.774086  
      80A      1.802681    81A      1.854109    82A      1.898644  
      83A      1.956440    84A      2.012720    85A      2.090660  
      86A      2.174905    87A      2.228251    88A      2.246310  
      89A      2.255483    90A      2.285837    91A      2.320749  
      92A      2.375322    93A      2.405837    94A      2.434583  
      95A      2.479726    96A      2.553805    97A      2.571541  
      98A      2.610014    99A      2.657928   100A      2.702649  
     101A      2.744114   102A      2.779771   103A      2.800836  
     104A      2.864106   105A      2.935978   106A      2.987326  
     107A      3.014194   108A      3.028231   109A      3.094103  
     110A      3.125352   111A      4.329519   112A      4.601653  
     113A      4.716688   114A      4.836732   115A      4.952415  
     116A      5.007492  

    Final Occupation by Irrep:
              A 
    DOCC [    25 ]

  Energy converged.

  @DF-RHF Final Energy:  -251.27641787028762

   => Energetics <=

    Nuclear Repulsion Energy =            271.1964177019576141
    One-Electron Energy =                -876.6766104775884969
    Two-Electron Energy =                 354.2037749053437778
    DFT Exchange-Correlation Energy =       0.0000000000000000
    Empirical Dispersion Energy =           0.0000000000000000
    PCM Polarization Energy =               0.0000000000000000
    EFP Energy =                            0.0000000000000000
    Total Energy =                       -251.2764178702871618

    Alert: EFP and PCM quantities not currently incorporated into SCF psivars.

Properties will be evaluated at   0.000000,   0.000000,   0.000000 Bohr
  ==> Properties <==


Properties computed using the SCF density matrix

  Nuclear Dipole Moment: (a.u.)
     X:    -1.2130      Y:     0.0287      Z:    -0.6220

  Electronic Dipole Moment: (a.u.)
     X:     1.0367      Y:     0.2607      Z:     1.2626

  Dipole Moment: (a.u.)
     X:    -0.1763      Y:     0.2894      Z:     0.6406     Total:     0.7247

  Dipole Moment: (Debye)
     X:    -0.4481      Y:     0.7355      Z:     1.6283     Total:     1.8421


  Saving occupied orbitals to File 180.

*** tstop() called on cx1-3-3-2.cx1.hpc.ic.ac.uk at Tue Jul  5 16:45:30 2016
Module time:
	user time   =       8.62 seconds =       0.14 minutes
	system time =       0.05 seconds =       0.00 minutes
	total time  =          9 seconds =       0.15 minutes
Total time:
	user time   =       8.62 seconds =       0.14 minutes
	system time =       0.05 seconds =       0.00 minutes
	total time  =          9 seconds =       0.15 minutes


Properties will be evaluated at   0.000000,   0.000000,   0.000000 Bohr

Properties computed using the  density matrix

  Nuclear Dipole Moment: (a.u.)
     X:    -1.2130      Y:     0.0287      Z:    -0.6220

  Electronic Dipole Moment: (a.u.)
     X:     1.0367      Y:     0.2607      Z:     1.2626

  Dipole Moment: (a.u.)
     X:    -0.1763      Y:     0.2894      Z:     0.6406     Total:     0.7247

  Dipole Moment: (Debye)
     X:    -0.4481      Y:     0.7355      Z:     1.6283     Total:     1.8421

  Quadrupole Moment: (Debye Ang)
    XX:   -40.7782     YY:   -38.7813     ZZ:   -40.8064
    XY:    -0.8976     XZ:    -0.5580     YZ:     1.9844

  Traceless Quadrupole Moment: (Debye Ang)
    XX:    -0.6563     YY:     1.3407     ZZ:    -0.6844
    XY:    -0.8976     XZ:    -0.5580     YZ:     1.9844

  Mulliken Charges: (a.u.)
   Center  Symbol    Alpha    Beta     Spin     Total
       1     H     0.31728  0.31728  0.00000  0.36544
       2     N     3.93067  3.93067  0.00000 -0.86135
       3     C     3.08403  3.08403  0.00000 -0.16807
       4     H     0.33078  0.33078  0.00000  0.33843
       5     C     3.14156  3.14156  0.00000 -0.28312
       6     H     0.41490  0.41490  0.00000  0.17021
       7     H     0.42011  0.42011  0.00000  0.15978
       8     C     3.15677  3.15677  0.00000 -0.31354
       9     H     0.42156  0.42156  0.00000  0.15687
      10     H     0.42537  0.42537  0.00000  0.14926
      11     C     3.14127  3.14127  0.00000 -0.28255
      12     H     0.42638  0.42638  0.00000  0.14725
      13     H     0.42224  0.42224  0.00000  0.15553
      14     C     3.20869  3.20869  0.00000 -0.41739
      15     H     0.41756  0.41756  0.00000  0.16487
      16     H     0.42692  0.42692  0.00000  0.14616
      17     H     0.44916  0.44916  0.00000  0.10169
      18     H     0.42794  0.42794  0.00000  0.14413
      19     H     0.43680  0.43680  0.00000  0.12639

   Total alpha = 25.00000, Total beta = 25.00000, Total charge =  0.00000


*** PSI4 exiting successfully. Buy a developer a beer!
