    -----------------------------------------------------------------------
          Psi4: An Open-Source Ab Initio Electronic Structure Package
                              Psi4 (no tag) Driver

                          Git: Rev {detached?}  

    J. M. Turney, A. C. Simmonett, R. M. Parrish, E. G. Hohenstein,
    F. A. Evangelista, J. T. Fermann, B. J. Mintz, L. A. Burns, J. J. Wilke,
    M. L. Abrams, N. J. Russ, M. L. Leininger, C. L. Janssen, E. T. Seidl,
    W. D. Allen, H. F. Schaefer, R. A. King, E. F. Valeev, C. D. Sherrill,
    and T. D. Crawford, WIREs Comput. Mol. Sci. 2, 556-565 (2012)
    (doi: 10.1002/wcms.93)

                         Additional Contributions by
    A. E. DePrince, M. Saitow, U. Bozkaya, A. Yu. Sokolov
    -----------------------------------------------------------------------


    Psi4 started on: Tue Jul  5 16:33:53 2016

    Process ID:  16408
    PSI4DATADIR: /export131/home/mjharvey/miniconda3/share
    Memory level set to 256.000 MB

  ==> Input File <==

--------------------------------------------------------------------------
set {
	reference rhf
	basis 6-31G*
}


set_num_threads( 1 )
memory 2 gb

molecule MOL {
0 1

H	 1.054865	 0.179659	 -1.918899
O	 1.631499	 0.886023	 -1.665460
C	 0.933123	 1.800208	 -0.858179
C	 0.031547	 1.023609	 0.088541
H	 0.323809	 2.461624	 -1.471493
H	 1.627426	 2.424882	 -0.300660
C	 -1.134819	 0.293262	 -0.585751
H	 -0.364656	 1.721166	 0.821156
H	 0.648061	 0.310390	 0.633012
C	 -1.917817	 -0.639439	 0.339494
H	 -0.758119	 -0.268455	 -1.433105
H	 -1.813832	 1.041889	 -0.986690
H	 -2.777680	 -1.057197	 -0.174994
H	 -1.310268	 -1.471279	 0.680599
H	 -2.283753	 -0.111424	 1.216626

	symmetry c1
}
set optking {
	frozen_dihedral = ("
		8 4 7 11,
		2 3 4 8
	")
}

ee = energy('scf')
oeprop('DIPOLE', 'QUADRUPOLE', 'MULLIKEN_CHARGES')
f=open( 'psi4out.xyz', 'w' )
f.write( "15  " )
f.write( str(ee) + "\n" )
f.write( MOL.save_string_xyz() )
f.close()
--------------------------------------------------------------------------

  Memory set to   2.000 GiB by Python script.

*** tstart() called on cx1-1-3-3.cx1.hpc.ic.ac.uk
*** at Tue Jul  5 16:33:54 2016


         ---------------------------------------------------------
                                   SCF
            by Justin Turney, Rob Parrish, and Andy Simmonett
                              RHF Reference
                        1 Threads,   2000 MiB Core
         ---------------------------------------------------------

  ==> Geometry <==

    Molecular point group: c1
    Full point group: C1

    Geometry (in Angstrom), charge = 0, multiplicity = 1:

       Center              X                  Y                   Z               Mass       
    ------------   -----------------  -----------------  -----------------  -----------------
           H          1.117752763449    -0.484221529660    -1.354767027433     1.007825032070
           O          1.694386763449     0.222142470340    -1.101328027433    15.994914619560
           C          0.996010763449     1.136327470340    -0.294047027433    12.000000000000
           C          0.094434763449     0.359728470340     0.652672972567    12.000000000000
           H          0.386696763449     1.797743470340    -0.907361027433     1.007825032070
           H          1.690313763449     1.761001470340     0.263471972567     1.007825032070
           C         -1.071931236551    -0.370618529660    -0.021619027433    12.000000000000
           H         -0.301768236551     1.057285470340     1.385287972567     1.007825032070
           H          0.710948763449    -0.353490529660     1.197143972567     1.007825032070
           C         -1.854929236551    -1.303319529660     0.903625972567    12.000000000000
           H         -0.695231236551    -0.932335529660    -0.868973027433     1.007825032070
           H         -1.750944236551     0.378008470340    -0.422558027433     1.007825032070
           H         -2.714792236551    -1.721077529660     0.389137972567     1.007825032070
           H         -1.247380236551    -2.135159529660     1.244730972567     1.007825032070
           H         -2.220865236551    -0.775304529660     1.780757972567     1.007825032070

  Running in c1 symmetry.

  Rotational constants: A =      0.40703  B =      0.08010  C =      0.07408 [cm^-1]
  Rotational constants: A =  12202.34682  B =   2401.20135  C =   2220.86074 [MHz]
  Nuclear repulsion =  189.311312890924427

  Charge       = 0
  Multiplicity = 1
  Electrons    = 42
  Nalpha       = 21
  Nbeta        = 21

  ==> Algorithm <==

  SCF Algorithm Type is DF.
  DIIS enabled.
  MOM disabled.
  Fractional occupation disabled.
  Guess Type is CORE.
  Energy threshold   = 1.00e-06
  Density threshold  = 1.00e-06
  Integral threshold = 0.00e+00

  ==> Primary Basis <==

  Basis Set: 6-31G*
    Number of shells: 50
    Number of basis function: 95
    Number of Cartesian functions: 95
    Spherical Harmonics?: false
    Max angular momentum: 2

  ==> Pre-Iterations <==

   -------------------------------------------------------
    Irrep   Nso     Nmo     Nalpha   Nbeta   Ndocc  Nsocc
   -------------------------------------------------------
     A         95      95       0       0       0       0
   -------------------------------------------------------
    Total      95      95      21      21      21       0
   -------------------------------------------------------

 OEINTS: Overlap, kinetic, potential, dipole, and quadrupole integrals
         stored in file 35.

  ==> Integral Setup <==

  ==> DFJK: Density-Fitted J/K Matrices <==

    J tasked:                  Yes
    K tasked:                  Yes
    wK tasked:                  No
    OpenMP threads:              1
    Integrals threads:           1
    Memory (MB):              1430
    Algorithm:                Core
    Integral Cache:           NONE
    Schwarz Cutoff:          1E-12
    Fitting Condition:       1E-12

   => Auxiliary Basis Set <=

  Basis Set: 
    Number of shells: 210
    Number of basis function: 655
    Number of Cartesian functions: 655
    Spherical Harmonics?: false
    Max angular momentum: 3

  Minimum eigenvalue in the overlap matrix is 4.2899132906E-03.
  Using Symmetric Orthogonalization.
  SCF Guess: Core (One-Electron) Hamiltonian.

  ==> Iterations <==

                           Total Energy        Delta E     RMS |[F,P]|

   @DF-RHF iter   1:  -180.43100790461475   -1.80431e+02   8.16174e-02 
   @DF-RHF iter   2:   -98.23438389283874    8.21966e+01   9.49417e-02 DIIS
   @DF-RHF iter   3:  -201.09921393172610   -1.02865e+02   4.46408e-02 DIIS
   @DF-RHF iter   4:  -163.12166039929500    3.79776e+01   7.81135e-02 DIIS
   @DF-RHF iter   5:  -217.36551167772771   -5.42439e+01   4.06322e-02 DIIS
   @DF-RHF iter   6:  -231.99101682212532   -1.46255e+01   4.94916e-03 DIIS
   @DF-RHF iter   7:  -232.12489646910777   -1.33880e-01   1.49499e-03 DIIS
   @DF-RHF iter   8:  -232.13683540655799   -1.19389e-02   6.31026e-04 DIIS
   @DF-RHF iter   9:  -232.13957777665539   -2.74237e-03   2.22289e-04 DIIS
   @DF-RHF iter  10:  -232.13990890882158   -3.31132e-04   7.97125e-05 DIIS
   @DF-RHF iter  11:  -232.13995603908413   -4.71303e-05   2.42469e-05 DIIS
   @DF-RHF iter  12:  -232.13995908791171   -3.04883e-06   8.21497e-06 DIIS
   @DF-RHF iter  13:  -232.13995947841059   -3.90499e-07   2.05301e-06 DIIS
   @DF-RHF iter  14:  -232.13995950747434   -2.90638e-08   4.29599e-07 DIIS

  ==> Post-Iterations <==

    Orbital Energies (a.u.)
    -----------------------

    Doubly Occupied:                                                      

       1A    -20.548773     2A    -11.268655     3A    -11.229640  
       4A    -11.219094     5A    -11.218652     6A     -1.358504  
       7A     -1.074971     8A     -0.980952     9A     -0.874151  
      10A     -0.800582    11A     -0.681484    12A     -0.654621  
      13A     -0.618609    14A     -0.602773    15A     -0.564984  
      16A     -0.541441    17A     -0.515596    18A     -0.488097  
      19A     -0.479145    20A     -0.460223    21A     -0.428260  

    Virtual:                                                              

      22A      0.218966    23A      0.247743    24A      0.258887  
      25A      0.284165    26A      0.306367    27A      0.321423  
      28A      0.326701    29A      0.337584    30A      0.343507  
      31A      0.372315    32A      0.399631    33A      0.416590  
      34A      0.440935    35A      0.460354    36A      0.693116  
      37A      0.719163    38A      0.743585    39A      0.756618  
      40A      0.818011    41A      0.844670    42A      0.874042  
      43A      0.912244    44A      0.951716    45A      1.006344  
      46A      1.038347    47A      1.064540    48A      1.122973  
      49A      1.128280    50A      1.164533    51A      1.170510  
      52A      1.177503    53A      1.190192    54A      1.200617  
      55A      1.209601    56A      1.230203    57A      1.230550  
      58A      1.263341    59A      1.336245    60A      1.373414  
      61A      1.480263    62A      1.521607    63A      1.653627  
      64A      1.664606    65A      1.718115    66A      1.840189  
      67A      1.874245    68A      1.948791    69A      2.004436  
      70A      2.106487    71A      2.163376    72A      2.213767  
      73A      2.230722    74A      2.272117    75A      2.297350  
      76A      2.339589    77A      2.436936    78A      2.459345  
      79A      2.546612    80A      2.594140    81A      2.651595  
      82A      2.692587    83A      2.712938    84A      2.767705  
      85A      2.790644    86A      2.892469    87A      2.945152  
      88A      3.053874    89A      3.069101    90A      3.224113  
      91A      4.223794    92A      4.567343    93A      4.700974  
      94A      4.808172    95A      4.952619  

    Final Occupation by Irrep:
              A 
    DOCC [    21 ]

  Energy converged.

  @DF-RHF Final Energy:  -232.13995950747434

   => Energetics <=

    Nuclear Repulsion Energy =            189.3113128909244267
    One-Electron Energy =                -689.6840887342137876
    Two-Electron Energy =                 268.2328163358153006
    DFT Exchange-Correlation Energy =       0.0000000000000000
    Empirical Dispersion Energy =           0.0000000000000000
    PCM Polarization Energy =               0.0000000000000000
    EFP Energy =                            0.0000000000000000
    Total Energy =                       -232.1399595074740319

    Alert: EFP and PCM quantities not currently incorporated into SCF psivars.

Properties will be evaluated at   0.000000,   0.000000,   0.000000 Bohr
  ==> Properties <==


Properties computed using the SCF density matrix

  Nuclear Dipole Moment: (a.u.)
     X:    -4.7029      Y:    -1.3185      Z:     2.5323

  Electronic Dipole Moment: (a.u.)
     X:     3.9470      Y:     1.2339      Z:    -2.2583

  Dipole Moment: (a.u.)
     X:    -0.7559      Y:    -0.0846      Z:     0.2740     Total:     0.8085

  Dipole Moment: (Debye)
     X:    -1.9214      Y:    -0.2149      Z:     0.6964     Total:     2.0550


  Saving occupied orbitals to File 180.

*** tstop() called on cx1-1-3-3.cx1.hpc.ic.ac.uk at Tue Jul  5 16:33:59 2016
Module time:
	user time   =       5.41 seconds =       0.09 minutes
	system time =       0.04 seconds =       0.00 minutes
	total time  =          5 seconds =       0.08 minutes
Total time:
	user time   =       5.41 seconds =       0.09 minutes
	system time =       0.04 seconds =       0.00 minutes
	total time  =          5 seconds =       0.08 minutes


Properties will be evaluated at   0.000000,   0.000000,   0.000000 Bohr

Properties computed using the  density matrix

  Nuclear Dipole Moment: (a.u.)
     X:    -4.7029      Y:    -1.3185      Z:     2.5323

  Electronic Dipole Moment: (a.u.)
     X:     3.9470      Y:     1.2339      Z:    -2.2583

  Dipole Moment: (a.u.)
     X:    -0.7559      Y:    -0.0846      Z:     0.2740     Total:     0.8085

  Dipole Moment: (Debye)
     X:    -1.9214      Y:    -0.2149      Z:     0.6964     Total:     2.0550

  Quadrupole Moment: (Debye Ang)
    XX:   -38.5075     YY:   -31.4088     ZZ:   -34.1927
    XY:    -0.4819     XZ:     2.9634     YZ:     1.8531

  Traceless Quadrupole Moment: (Debye Ang)
    XX:    -3.8045     YY:     3.2942     ZZ:     0.5103
    XY:    -0.4819     XZ:     2.9634     YZ:     1.8531

  Mulliken Charges: (a.u.)
   Center  Symbol    Alpha    Beta     Spin     Total
       1     H     0.27645  0.27645  0.00000  0.44710
       2     O     4.37612  4.37612  0.00000 -0.75223
       3     C     2.98698  2.98698  0.00000  0.02603
       4     C     3.17457  3.17457  0.00000 -0.34913
       5     H     0.43147  0.43147  0.00000  0.13706
       6     H     0.41467  0.41467  0.00000  0.17067
       7     C     3.15779  3.15779  0.00000 -0.31558
       8     H     0.42212  0.42212  0.00000  0.15575
       9     H     0.41529  0.41529  0.00000  0.16943
      10     C     3.23863  3.23863  0.00000 -0.47726
      11     H     0.43305  0.43305  0.00000  0.13389
      12     H     0.41815  0.41815  0.00000  0.16370
      13     H     0.41709  0.41709  0.00000  0.16581
      14     H     0.41875  0.41875  0.00000  0.16250
      15     H     0.41886  0.41886  0.00000  0.16227

   Total alpha = 21.00000, Total beta = 21.00000, Total charge =  0.00000


*** PSI4 exiting successfully. Buy a developer a beer!
