    -----------------------------------------------------------------------
          Psi4: An Open-Source Ab Initio Electronic Structure Package
                              Psi4 (no tag) Driver

                          Git: Rev {detached?}  

    J. M. Turney, A. C. Simmonett, R. M. Parrish, E. G. Hohenstein,
    F. A. Evangelista, J. T. Fermann, B. J. Mintz, L. A. Burns, J. J. Wilke,
    M. L. Abrams, N. J. Russ, M. L. Leininger, C. L. Janssen, E. T. Seidl,
    W. D. Allen, H. F. Schaefer, R. A. King, E. F. Valeev, C. D. Sherrill,
    and T. D. Crawford, WIREs Comput. Mol. Sci. 2, 556-565 (2012)
    (doi: 10.1002/wcms.93)

                         Additional Contributions by
    A. E. DePrince, M. Saitow, U. Bozkaya, A. Yu. Sokolov
    -----------------------------------------------------------------------


    Psi4 started on: Tue Jul  5 16:31:46 2016

    Process ID:  21521
    PSI4DATADIR: /export131/home/mjharvey/miniconda3/share
    Memory level set to 256.000 MB

  ==> Input File <==

--------------------------------------------------------------------------
set {
	reference rhf
	basis 6-31G*
}


set_num_threads( 1 )
memory 2 gb

molecule MOL {
0 1

H	 -2.273092	 1.173159	 0.000295
O	 -1.438904	 1.618192	 0.000114
C	 -0.409536	 0.736003	 0.000030
C	 0.679943	 1.051927	 -0.796479
C	 -0.430018	 -0.433615	 0.756678
H	 0.654600	 1.963782	 -1.363814
C	 1.766809	 0.200073	 -0.847230
C	 0.676323	 -1.271505	 0.686406
C	 -1.619728	 -0.776590	 1.624990
H	 2.608972	 0.450944	 -1.467163
C	 1.770930	 -0.969405	 -0.104074
H	 0.675981	 -2.179025	 1.264983
H	 -2.532529	 -0.880045	 1.041864
H	 -1.460788	 -1.716792	 2.137566
H	 -1.797341	 -0.021672	 2.388239
H	 2.612846	 -1.636621	 -0.138713

	symmetry c1
}
ee = energy('scf')
oeprop('DIPOLE', 'QUADRUPOLE', 'MULLIKEN_CHARGES')
f=open( 'psi4out.xyz', 'w' )
f.write( "16  " )
f.write( str(ee) + "\n" )
f.write( MOL.save_string_xyz() )
f.close()
--------------------------------------------------------------------------

  Memory set to   2.000 GiB by Python script.

*** tstart() called on cx1-3-15-2.cx1.hpc.ic.ac.uk
*** at Tue Jul  5 16:31:47 2016


         ---------------------------------------------------------
                                   SCF
            by Justin Turney, Rob Parrish, and Andy Simmonett
                              RHF Reference
                        1 Threads,   2000 MiB Core
         ---------------------------------------------------------

  ==> Geometry <==

    Molecular point group: c1
    Full point group: C1

    Geometry (in Angstrom), charge = 0, multiplicity = 1:

       Center              X                  Y                   Z               Mass       
    ------------   -----------------  -----------------  -----------------  -----------------
           H         -2.316387017561     1.122658516713    -0.182377741945     1.007825032070
           O         -1.482199017561     1.567691516713    -0.182558741945    15.994914619560
           C         -0.452831017561     0.685502516713    -0.182642741945    12.000000000000
           C          0.636647982439     1.001426516713    -0.979151741945    12.000000000000
           C         -0.473313017561    -0.484115483287     0.574005258055    12.000000000000
           H          0.611304982439     1.913281516713    -1.546486741945     1.007825032070
           C          1.723513982439     0.149572516713    -1.029902741945    12.000000000000
           C          0.633027982439    -1.322005483287     0.503733258055    12.000000000000
           C         -1.663023017561    -0.827090483287     1.442317258055    12.000000000000
           H          2.565676982439     0.400443516713    -1.649835741945     1.007825032070
           C          1.727634982439    -1.019905483287    -0.286746741945    12.000000000000
           H          0.632685982439    -2.229525483287     1.082310258055     1.007825032070
           H         -2.575824017561    -0.930545483287     0.859191258055     1.007825032070
           H         -1.504083017561    -1.767292483287     1.954893258055     1.007825032070
           H         -1.840636017561    -0.072172483287     2.205566258055     1.007825032070
           H          2.569550982439    -1.687121483287    -0.321385741945     1.007825032070

  Running in c1 symmetry.

  Rotational constants: A =      0.10893  B =      0.07445  C =      0.04466 [cm^-1]
  Rotational constants: A =   3265.60178  B =   2232.08516  C =   1338.96432 [MHz]
  Nuclear repulsion =  349.991877556721477

  Charge       = 0
  Multiplicity = 1
  Electrons    = 58
  Nalpha       = 29
  Nbeta        = 29

  ==> Algorithm <==

  SCF Algorithm Type is DF.
  DIIS enabled.
  MOM disabled.
  Fractional occupation disabled.
  Guess Type is CORE.
  Energy threshold   = 1.00e-06
  Density threshold  = 1.00e-06
  Integral threshold = 0.00e+00

  ==> Primary Basis <==

  Basis Set: 6-31G*
    Number of shells: 64
    Number of basis function: 136
    Number of Cartesian functions: 136
    Spherical Harmonics?: false
    Max angular momentum: 2

  ==> Pre-Iterations <==

   -------------------------------------------------------
    Irrep   Nso     Nmo     Nalpha   Nbeta   Ndocc  Nsocc
   -------------------------------------------------------
     A        136     136       0       0       0       0
   -------------------------------------------------------
    Total     136     136      29      29      29       0
   -------------------------------------------------------

 OEINTS: Overlap, kinetic, potential, dipole, and quadrupole integrals
         stored in file 35.

  ==> Integral Setup <==

  ==> DFJK: Density-Fitted J/K Matrices <==

    J tasked:                  Yes
    K tasked:                  Yes
    wK tasked:                  No
    OpenMP threads:              1
    Integrals threads:           1
    Memory (MB):              1430
    Algorithm:                Core
    Integral Cache:           NONE
    Schwarz Cutoff:          1E-12
    Fitting Condition:       1E-12

   => Auxiliary Basis Set <=

  Basis Set: 
    Number of shells: 264
    Number of basis function: 848
    Number of Cartesian functions: 848
    Spherical Harmonics?: false
    Max angular momentum: 3

  Minimum eigenvalue in the overlap matrix is 3.9690246711E-04.
  Using Symmetric Orthogonalization.
  SCF Guess: Core (One-Electron) Hamiltonian.

  ==> Iterations <==

                           Total Energy        Delta E     RMS |[F,P]|

   @DF-RHF iter   1:  -269.34754570340141   -2.69348e+02   6.79462e-02 
   @DF-RHF iter   2:  -240.45535856036969    2.88922e+01   5.35663e-02 DIIS
   @DF-RHF iter   3:  -294.35780911014621   -5.39025e+01   5.50363e-02 DIIS
   @DF-RHF iter   4:  -331.29171640814849   -3.69339e+01   3.12909e-02 DIIS
   @DF-RHF iter   5:  -342.81412169298204   -1.15224e+01   1.23459e-02 DIIS
   @DF-RHF iter   6:  -344.35073353637853   -1.53661e+00   5.01307e-03 DIIS
   @DF-RHF iter   7:  -344.57607284043019   -2.25339e-01   1.10255e-03 DIIS
   @DF-RHF iter   8:  -344.58847714028326   -1.24043e-02   5.08651e-04 DIIS
   @DF-RHF iter   9:  -344.59184497774521   -3.36784e-03   1.32895e-04 DIIS
   @DF-RHF iter  10:  -344.59219959936496   -3.54622e-04   5.02442e-05 DIIS
   @DF-RHF iter  11:  -344.59228355713179   -8.39578e-05   2.20663e-05 DIIS
   @DF-RHF iter  12:  -344.59230412286746   -2.05657e-05   1.15025e-05 DIIS
   @DF-RHF iter  13:  -344.59231206325313   -7.94039e-06   3.67995e-06 DIIS
   @DF-RHF iter  14:  -344.59231292470412   -8.61451e-07   1.10058e-06 DIIS
   @DF-RHF iter  15:  -344.59231296487070   -4.01666e-08   3.84572e-07 DIIS

  ==> Post-Iterations <==

    Orbital Energies (a.u.)
    -----------------------

    Doubly Occupied:                                                      

       1A    -20.582951     2A    -11.288569     3A    -11.235106  
       4A    -11.230110     5A    -11.230009     6A    -11.228868  
       7A    -11.221401     8A    -11.220048     9A     -1.402779  
      10A     -1.148309    11A     -1.046710    12A     -1.003566  
      13A     -0.938279    14A     -0.824372    15A     -0.817224  
      16A     -0.728833    17A     -0.673529    18A     -0.645560  
      19A     -0.617354    20A     -0.594853    21A     -0.573098  
      22A     -0.570409    23A     -0.550430    24A     -0.535553  
      25A     -0.502053    26A     -0.482364    27A     -0.468719  
      28A     -0.328634    29A     -0.309062  

    Virtual:                                                              

      30A      0.148865    31A      0.160078    32A      0.211792  
      33A      0.246738    34A      0.283290    35A      0.294269  
      36A      0.322665    37A      0.323526    38A      0.332567  
      39A      0.351704    40A      0.399877    41A      0.409809  
      42A      0.455723    43A      0.482862    44A      0.507501  
      45A      0.557907    46A      0.569628    47A      0.707745  
      48A      0.718728    49A      0.734145    50A      0.737384  
      51A      0.751595    52A      0.773484    53A      0.821421  
      54A      0.834405    55A      0.837988    56A      0.848301  
      57A      0.853858    58A      0.880955    59A      0.888983  
      60A      0.919760    61A      0.949217    62A      0.961304  
      63A      1.012806    64A      1.044153    65A      1.063723  
      66A      1.105993    67A      1.115367    68A      1.126667  
      69A      1.142669    70A      1.159196    71A      1.187822  
      72A      1.190801    73A      1.213580    74A      1.237189  
      75A      1.238860    76A      1.272905    77A      1.306265  
      78A      1.323116    79A      1.348577    80A      1.391548  
      81A      1.440398    82A      1.476378    83A      1.505285  
      84A      1.519535    85A      1.615989    86A      1.629126  
      87A      1.660755    88A      1.696823    89A      1.733802  
      90A      1.751044    91A      1.771871    92A      1.790997  
      93A      1.949694    94A      2.041642    95A      2.101573  
      96A      2.129622    97A      2.145674    98A      2.157364  
      99A      2.192505   100A      2.228591   101A      2.253042  
     102A      2.297468   103A      2.311489   104A      2.334526  
     105A      2.429743   106A      2.442764   107A      2.474555  
     108A      2.523864   109A      2.568185   110A      2.576775  
     111A      2.638488   112A      2.643474   113A      2.660130  
     114A      2.678144   115A      2.690006   116A      2.811774  
     117A      2.905098   118A      2.918477   119A      2.953025  
     120A      3.053303   121A      3.074741   122A      3.103940  
     123A      3.139726   124A      3.166516   125A      3.247223  
     126A      3.358694   127A      3.543528   128A      3.840942  
     129A      4.371747   130A      4.534651   131A      4.551441  
     132A      4.609376   133A      4.720152   134A      4.828019  
     135A      4.856087   136A      5.192216  

    Final Occupation by Irrep:
              A 
    DOCC [    29 ]

  Energy converged.

  @DF-RHF Final Energy:  -344.59231296487070

   => Energetics <=

    Nuclear Repulsion Energy =            349.9918775567214766
    One-Electron Energy =               -1161.1709548507203635
    Two-Electron Energy =                 466.5867643291281297
    DFT Exchange-Correlation Energy =       0.0000000000000000
    Empirical Dispersion Energy =           0.0000000000000000
    PCM Polarization Energy =               0.0000000000000000
    EFP Energy =                            0.0000000000000000
    Total Energy =                       -344.5923129648708141

    Alert: EFP and PCM quantities not currently incorporated into SCF psivars.

Properties will be evaluated at   0.000000,   0.000000,   0.000000 Bohr
  ==> Properties <==


Properties computed using the SCF density matrix

  Nuclear Dipole Moment: (a.u.)
     X:    -1.7487      Y:    -3.0395      Z:     2.2508

  Electronic Dipole Moment: (a.u.)
     X:     1.4119      Y:     2.4756      Z:    -2.1977

  Dipole Moment: (a.u.)
     X:    -0.3368      Y:    -0.5639      Z:     0.0531     Total:     0.6590

  Dipole Moment: (Debye)
     X:    -0.8561      Y:    -1.4333      Z:     0.1349     Total:     1.6750


  Saving occupied orbitals to File 180.

*** tstop() called on cx1-3-15-2.cx1.hpc.ic.ac.uk at Tue Jul  5 16:31:58 2016
Module time:
	user time   =      11.54 seconds =       0.19 minutes
	system time =       0.05 seconds =       0.00 minutes
	total time  =         11 seconds =       0.18 minutes
Total time:
	user time   =      11.54 seconds =       0.19 minutes
	system time =       0.05 seconds =       0.00 minutes
	total time  =         11 seconds =       0.18 minutes


Properties will be evaluated at   0.000000,   0.000000,   0.000000 Bohr

Properties computed using the  density matrix

  Nuclear Dipole Moment: (a.u.)
     X:    -1.7487      Y:    -3.0395      Z:     2.2508

  Electronic Dipole Moment: (a.u.)
     X:     1.4119      Y:     2.4756      Z:    -2.1977

  Dipole Moment: (a.u.)
     X:    -0.3368      Y:    -0.5639      Z:     0.0531     Total:     0.6590

  Dipole Moment: (Debye)
     X:    -0.8561      Y:    -1.4333      Z:     0.1349     Total:     1.6750

  Quadrupole Moment: (Debye Ang)
    XX:   -40.7201     YY:   -49.3469     ZZ:   -47.5231
    XY:     0.3963     XZ:    -2.3983     YZ:    -2.8672

  Traceless Quadrupole Moment: (Debye Ang)
    XX:     5.1433     YY:    -3.4836     ZZ:    -1.6597
    XY:     0.3963     XZ:    -2.3983     YZ:    -2.8672

  Mulliken Charges: (a.u.)
   Center  Symbol    Alpha    Beta     Spin     Total
       1     H     0.27026  0.27026  0.00000  0.45948
       2     O     4.38276  4.38276  0.00000 -0.76552
       3     C     2.82376  2.82376  0.00000  0.35248
       4     C     3.11615  3.11615  0.00000 -0.23230
       5     C     3.00621  3.00621  0.00000 -0.01242
       6     H     0.39241  0.39241  0.00000  0.21519
       7     C     3.09803  3.09803  0.00000 -0.19607
       8     C     3.10894  3.10894  0.00000 -0.21787
       9     C     3.25998  3.25998  0.00000 -0.51997
      10     H     0.39937  0.39937  0.00000  0.20127
      11     C     3.10550  3.10550  0.00000 -0.21100
      12     H     0.40162  0.40162  0.00000  0.19676
      13     H     0.42116  0.42116  0.00000  0.15769
      14     H     0.40842  0.40842  0.00000  0.18316
      15     H     0.40490  0.40490  0.00000  0.19021
      16     H     0.40054  0.40054  0.00000  0.19891

   Total alpha = 29.00000, Total beta = 29.00000, Total charge = -0.00000


*** PSI4 exiting successfully. Buy a developer a beer!
