
    -----------------------------------------------------------------------
          Psi4: An Open-Source Ab Initio Electronic Structure Package
                               Psi4 1.1 release

                         Git: Rev {HEAD} add49b9 


    R. M. Parrish, L. A. Burns, D. G. A. Smith, A. C. Simmonett,
    A. E. DePrince III, E. G. Hohenstein, U. Bozkaya, A. Yu. Sokolov,
    R. Di Remigio, R. M. Richard, J. F. Gonthier, A. M. James,
    H. R. McAlexander, A. Kumar, M. Saitow, X. Wang, B. P. Pritchard,
    P. Verma, H. F. Schaefer III, K. Patkowski, R. A. King, E. F. Valeev,
    F. A. Evangelista, J. M. Turney, T. D. Crawford, and C. D. Sherrill,
    J. Chem. Theory Comput. in press (2017).
    (doi: 10.1021/acs.jctc.7b00174)

    -----------------------------------------------------------------------


    Psi4 started on: Tuesday, 12 December 2017 11:19AM

    Process ID:  27613
    PSIDATADIR: /shared/raimis/opt/miniconda/envs/htmd/share/psi4
    Memory:     500.0 MiB
    Threads:    1
    
  ==> Input File <==

--------------------------------------------------------------------------
set_num_threads(1)
set_memory(4203741184)

set { reference rks }
set { basis cc-pVDZ }

molecule MOL {
    0 1
    noreorient
    nocom
    symmetry c1
    O    1.050400   0.042900  -0.048100
    C    2.474100   0.047400  -0.029000
    C    3.002600  -1.068900  -0.932000
    N    4.462700  -1.072400  -1.006800
    H    0.783559   0.028135  -0.983295
    H    2.809900  -0.097900   1.003200
    H    2.817400   1.026800  -0.378600
    H    2.581000  -0.963300  -1.938400
    H    2.653800  -2.036400  -0.553400
    H    4.779000  -0.221000  -1.470000
    H    4.758600  -1.842500  -1.606500
}

set optking { frozen_dihedral = (" 3 2 1 5 ") }

energy, wfn = energy('B3LYP-D3', return_wfn=True)

import os
os.chdir(os.environ['HTMD_PSI4_WORKDIR'])

oeprop(wfn, 'DIPOLE', 'QUADRUPOLE', 'MULLIKEN_CHARGES')

with open('psi4out.xyz', 'w') as f:
    f.write('11 ' )
    f.write('%.12f\n' % energy)
    f.write(MOL.save_string_xyz())
--------------------------------------------------------------------------
  Threads set to 1 by Python driver.

  Memory set to   3.915 GiB by Python driver.

*** tstart() called on computer06
*** at Tue Dec 12 11:19:08 2017

   => Loading Basis Set <=

    Name: CC-PVDZ
    Role: ORBITAL
    Keyword: BASIS
    atoms 1    entry O          line   190 file /shared/raimis/opt/miniconda/envs/htmd/share/psi4/basis/cc-pvdz.gbs 
    atoms 2-3  entry C          line   130 file /shared/raimis/opt/miniconda/envs/htmd/share/psi4/basis/cc-pvdz.gbs 
    atoms 4    entry N          line   160 file /shared/raimis/opt/miniconda/envs/htmd/share/psi4/basis/cc-pvdz.gbs 
    atoms 5-11 entry H          line    20 file /shared/raimis/opt/miniconda/envs/htmd/share/psi4/basis/cc-pvdz.gbs 


         ---------------------------------------------------------
                                   SCF
            by Justin Turney, Rob Parrish, and Andy Simmonett
                              RKS Reference
                        1 Threads,   4009 MiB Core
         ---------------------------------------------------------

  ==> Geometry <==

    Molecular point group: c1
    Full point group: C1

    Geometry (in Angstrom), charge = 0, multiplicity = 1:

       Center              X                  Y                   Z               Mass       
    ------------   -----------------  -----------------  -----------------  -----------------
           O          1.050400000000     0.042900000000    -0.048100000000    15.994914619560
           C          2.474100000000     0.047400000000    -0.029000000000    12.000000000000
           C          3.002600000000    -1.068900000000    -0.932000000000    12.000000000000
           N          4.462700000000    -1.072400000000    -1.006800000000    14.003074004780
           H          0.783559000000     0.028135000000    -0.983295000000     1.007825032070
           H          2.809900000000    -0.097900000000     1.003200000000     1.007825032070
           H          2.817400000000     1.026800000000    -0.378600000000     1.007825032070
           H          2.581000000000    -0.963300000000    -1.938400000000     1.007825032070
           H          2.653800000000    -2.036400000000    -0.553400000000     1.007825032070
           H          4.779000000000    -0.221000000000    -1.470000000000     1.007825032070
           H          4.758600000000    -1.842500000000    -1.606500000000     1.007825032070

  Running in c1 symmetry.

  Rotational constants: A =      0.73921  B =      0.02758  C =      0.02697 [cm^-1]
  Rotational constants: A =  22161.09027  B =    826.70770  C =    808.50815 [MHz]
  Nuclear repulsion =  130.942986095745624

  Charge       = 0
  Multiplicity = 1
  Electrons    = 34
  Nalpha       = 17
  Nbeta        = 17

  ==> Algorithm <==

  SCF Algorithm Type is DF.
  DIIS enabled.
  MOM disabled.
  Fractional occupation disabled.
  Guess Type is SAD.
  Energy threshold   = 1.00e-06
  Density threshold  = 1.00e-06
  Integral threshold = 0.00e+00

  ==> Primary Basis <==

  Basis Set: CC-PVDZ
    Blend: CC-PVDZ
    Number of shells: 45
    Number of basis function: 91
    Number of Cartesian functions: 95
    Spherical Harmonics?: true
    Max angular momentum: 2

  ==> DFT Potential <==

   => B3LYP Composite Functional <= 

    B3LYP Hybrid-GGA Exchange-Correlation Functional (VWN1-RPA)

    P.J. Stephens et. al., J. Phys. Chem., 98, 11623-11627, 1994

    Points   =           5000
    Deriv    =              1
    GGA      =           TRUE
    Meta     =          FALSE

    X_LRC        =          FALSE
    X_Hybrid     =           TRUE
    X_Alpha      =   2.000000E-01
    X_Omega      =   0.000000E+00
    C_LRC        =          FALSE
    C_Hybrid     =          FALSE
    C_Alpha      =   0.000000E+00
    C_Omega      =   0.000000E+00

   => Exchange Functionals <=

    0.8000    B3_X
    0.2000      HF 

   => Correlation Functionals <=

    0.1900 VWN3RPA_C
    0.8100   LYP_C

   => Molecular Quadrature <=

    Radial Scheme    =       TREUTLER
    Pruning Scheme   =           FLAT
    Nuclear Scheme   =       TREUTLER

    BS radius alpha  =              1
    Pruning alpha    =              1
    Radial Points    =             75
    Spherical Points =            302
    Total Points     =         245066
    Total Blocks     =            223
    Max Points       =           4932
    Max Functions    =             91

   => -D3ZERO: Empirical Dispersion <=

    Grimme's -D3 (zero-damping) Dispersion Correction
    Grimme S.; Antony J.; Ehrlich S.; Krieg H. (2010), J. Chem. Phys., 132: 154104

        S6 =   1.000000E+00
        S8 =   1.703000E+00
       SR6 =   1.261000E+00
    ALPHA6 =   1.400000E+01

   => Loading Basis Set <=

    Name: (CC-PVDZ AUX)
    Role: JKFIT
    Keyword: DF_BASIS_SCF
    atoms 1    entry O          line   220 file /shared/raimis/opt/miniconda/envs/htmd/share/psi4/basis/cc-pvdz-jkfit.gbs 
    atoms 2-3  entry C          line   120 file /shared/raimis/opt/miniconda/envs/htmd/share/psi4/basis/cc-pvdz-jkfit.gbs 
    atoms 4    entry N          line   170 file /shared/raimis/opt/miniconda/envs/htmd/share/psi4/basis/cc-pvdz-jkfit.gbs 
    atoms 5-11 entry H          line    50 file /shared/raimis/opt/miniconda/envs/htmd/share/psi4/basis/cc-pvdz-jkfit.gbs 

  ==> Pre-Iterations <==

   -------------------------------------------------------
    Irrep   Nso     Nmo     Nalpha   Nbeta   Ndocc  Nsocc
   -------------------------------------------------------
     A         91      91       0       0       0       0
   -------------------------------------------------------
    Total      91      91      17      17      17       0
   -------------------------------------------------------

  ==> Integral Setup <==

  ==> DFJK: Density-Fitted J/K Matrices <==

    J tasked:                  Yes
    K tasked:                  Yes
    wK tasked:                  No
    OpenMP threads:              1
    Integrals threads:           1
    Memory (MB):              3006
    Algorithm:                Core
    Integral Cache:           NONE
    Schwarz Cutoff:          1E-12
    Fitting Condition:       1E-12

   => Auxiliary Basis Set <=

  Basis Set: (CC-PVDZ AUX)
    Blend: CC-PVDZ-JKFIT
    Number of shells: 159
    Number of basis function: 441
    Number of Cartesian functions: 499
    Spherical Harmonics?: true
    Max angular momentum: 3

  Minimum eigenvalue in the overlap matrix is 4.4245391084E-03.
  Using Symmetric Orthogonalization.

  SCF Guess: Superposition of Atomic Densities via on-the-fly atomic UHF.

  ==> Iterations <==

                           Total Energy        Delta E     RMS |[F,P]|

   @DF-RKS iter   0:  -210.76268186406924   -2.10763e+02   3.62011e-02 
   @DF-RKS iter   1:  -210.20910200452781    5.53580e-01   7.16221e-03 
   @DF-RKS iter   2:  -210.05905018961371    1.50052e-01   9.78378e-03 DIIS
   @DF-RKS iter   3:  -210.39127221128788   -3.32222e-01   5.75164e-04 DIIS
   @DF-RKS iter   4:  -210.39200527883702   -7.33068e-04   3.55737e-04 DIIS
   @DF-RKS iter   5:  -210.39246952302602   -4.64244e-04   5.37286e-05 DIIS
   @DF-RKS iter   6:  -210.39247778156630   -8.25854e-06   2.47889e-05 DIIS
   @DF-RKS iter   7:  -210.39247993480825   -2.15324e-06   2.18545e-06 DIIS
   @DF-RKS iter   8:  -210.39247995225350   -1.74452e-08   5.83282e-07 DIIS

  ==> Post-Iterations <==

    Orbital Energies (a.u.)
    -----------------------

    Doubly Occupied:                                                      

       1A    -19.128523     2A    -14.309249     3A    -10.224757  
       4A    -10.207330     5A     -1.011414     6A     -0.881246  
       7A     -0.711740     8A     -0.613009     9A     -0.510303  
      10A     -0.466326    11A     -0.458858    12A     -0.433984  
      13A     -0.395529    14A     -0.366295    15A     -0.322860  
      16A     -0.263984    17A     -0.236693  

    Virtual:                                                              

      18A      0.049756    19A      0.056944    20A      0.095235  
      21A      0.103666    22A      0.136954    23A      0.152138  
      24A      0.164521    25A      0.209719    26A      0.240299  
      27A      0.253876    28A      0.433482    29A      0.447870  
      30A      0.486238    31A      0.499474    32A      0.535003  
      33A      0.583515    34A      0.589879    35A      0.613663  
      36A      0.643897    37A      0.653196    38A      0.666381  
      39A      0.667454    40A      0.699720    41A      0.809454  
      42A      0.831563    43A      0.840116    44A      0.907748  
      45A      0.953924    46A      1.008336    47A      1.023244  
      48A      1.065601    49A      1.149684    50A      1.207119  
      51A      1.212751    52A      1.243850    53A      1.298104  
      54A      1.400444    55A      1.445455    56A      1.461154  
      57A      1.512343    58A      1.602355    59A      1.626336  
      60A      1.644293    61A      1.659793    62A      1.675316  
      63A      1.699311    64A      1.728196    65A      1.731035  
      66A      1.790143    67A      1.820965    68A      1.847653  
      69A      1.874212    70A      1.957192    71A      1.978845  
      72A      2.010023    73A      2.056825    74A      2.101689  
      75A      2.158165    76A      2.243361    77A      2.260542  
      78A      2.365793    79A      2.398052    80A      2.441092  
      81A      2.474092    82A      2.546669    83A      2.597337  
      84A      2.679768    85A      2.822022    86A      2.941477  
      87A      3.006311    88A      3.057365    89A      3.082670  
      90A      3.239579    91A      3.682520  

    Final Occupation by Irrep:
              A 
    DOCC [    17 ]

  Energy converged.

  @DF-RKS Final Energy:  -210.39247995225350

   => Energetics <=

    Nuclear Repulsion Energy =            130.9429860957456242
    One-Electron Energy =                -544.7048083393066236
    Two-Electron Energy =                 226.8603737954155690
    DFT Exchange-Correlation Energy =     -23.4858780441080235
    Empirical Dispersion Energy =          -0.0051534600000000
    PCM Polarization Energy =               0.0000000000000000
    EFP Energy =                            0.0000000000000000
    Total Energy =                       -210.3924799522534954



Properties will be evaluated at   0.000000,   0.000000,   0.000000 Bohr

Properties computed using the SCF density matrix

  Nuclear Dipole Moment: (a.u.)
     X:   177.0400      Y:   -32.8789      Z:   -36.1418

  Electronic Dipole Moment: (a.u.)
     X:  -176.7893      Y:    32.8551      Z:    35.1588

  Dipole Moment: (a.u.)
     X:     0.2508      Y:    -0.0238      Z:    -0.9829     Total:     1.0147

  Dipole Moment: (Debye)
     X:     0.6374      Y:    -0.0604      Z:    -2.4984     Total:     2.5791


*** tstop() called on computer06 at Tue Dec 12 11:19:31 2017
Module time:
	user time   =      23.20 seconds =       0.39 minutes
	system time =       0.14 seconds =       0.00 minutes
	total time  =         23 seconds =       0.38 minutes
Total time:
	user time   =      23.20 seconds =       0.39 minutes
	system time =       0.14 seconds =       0.00 minutes
	total time  =         23 seconds =       0.38 minutes


Properties will be evaluated at   0.000000,   0.000000,   0.000000 Bohr

Properties computed using the  density matrix

  Nuclear Dipole Moment: (a.u.)
     X:   177.0400      Y:   -32.8789      Z:   -36.1418

  Electronic Dipole Moment: (a.u.)
     X:  -176.7893      Y:    32.8551      Z:    35.1588

  Dipole Moment: (a.u.)
     X:     0.2508      Y:    -0.0238      Z:    -0.9829     Total:     1.0147

  Dipole Moment: (Debye)
     X:     0.6374      Y:    -0.0604      Z:    -2.4984     Total:     2.5791

  Quadrupole Moment: (Debye Ang)
    XX:   -24.4582     YY:   -24.5386     ZZ:   -21.4848
    XY:     0.4066     XZ:    -6.7731     YZ:     1.2172

  Traceless Quadrupole Moment: (Debye Ang)
    XX:    -0.9644     YY:    -1.0447     ZZ:     2.0091
    XY:     0.4066     XZ:    -6.7731     YZ:     1.2172

  Mulliken Charges: (a.u.)
   Center  Symbol    Alpha    Beta     Spin     Total
       1     O     4.13934  4.13934  0.00000 -0.27868
       2     C     2.91753  2.91753  0.00000  0.16495
       3     C     2.99992  2.99992  0.00000  0.00016
       4     N     3.59125  3.59125  0.00000 -0.18249
       5     H     0.43279  0.43279  0.00000  0.13442
       6     H     0.48599  0.48599  0.00000  0.02801
       7     H     0.50377  0.50377  0.00000 -0.00755
       8     H     0.51085  0.51085  0.00000 -0.02170
       9     H     0.48918  0.48918  0.00000  0.02163
      10     H     0.46547  0.46547  0.00000  0.06907
      11     H     0.46391  0.46391  0.00000  0.07217

   Total alpha = 17.00000, Total beta = 17.00000, Total charge = -0.00000


*** Psi4 exiting successfully. Buy a developer a beer!
