    -----------------------------------------------------------------------
          Psi4: An Open-Source Ab Initio Electronic Structure Package
                              Psi4 (no tag) Driver

                          Git: Rev {detached?}  

    J. M. Turney, A. C. Simmonett, R. M. Parrish, E. G. Hohenstein,
    F. A. Evangelista, J. T. Fermann, B. J. Mintz, L. A. Burns, J. J. Wilke,
    M. L. Abrams, N. J. Russ, M. L. Leininger, C. L. Janssen, E. T. Seidl,
    W. D. Allen, H. F. Schaefer, R. A. King, E. F. Valeev, C. D. Sherrill,
    and T. D. Crawford, WIREs Comput. Mol. Sci. 2, 556-565 (2012)
    (doi: 10.1002/wcms.93)

                         Additional Contributions by
    A. E. DePrince, M. Saitow, U. Bozkaya, A. Yu. Sokolov
    -----------------------------------------------------------------------


    Psi4 started on: Tue Jul  5 16:48:55 2016

    Process ID:    950
    PSI4DATADIR: /export131/home/mjharvey/miniconda3/share
    Memory level set to 256.000 MB

  ==> Input File <==

--------------------------------------------------------------------------
set {
	reference rhf
	basis 6-31G*
}


set_num_threads( 1 )
memory 2 gb

molecule MOL {
0 1

H	 1.723202	 1.632482	 -1.968286
C	 0.995937	 1.433708	 -1.189505
C	 1.322923	 0.120767	 -0.479465
H	 1.011660	 2.271686	 -0.499636
H	 0.015082	 1.398287	 -1.653469
C	 0.306652	 -0.176050	 0.621399
H	 2.313063	 0.171746	 -0.038497
H	 1.322156	 -0.700098	 -1.186883
N	 -1.068537	 -0.011044	 0.085269
H	 0.372515	 -1.192590	 0.973735
H	 0.391664	 0.520566	 1.441230
O	 -1.183570	 0.482703	 -0.993784
O	 -1.968483	 -0.356413	 0.788719

	symmetry c1
}
set optking {
	frozen_dihedral = ("
		7 3 6 9
	")
}

ee = energy('scf')
oeprop('DIPOLE', 'QUADRUPOLE', 'MULLIKEN_CHARGES')
f=open( 'psi4out.xyz', 'w' )
f.write( "13  " )
f.write( str(ee) + "\n" )
f.write( MOL.save_string_xyz() )
f.close()
--------------------------------------------------------------------------

  Memory set to   2.000 GiB by Python script.

*** tstart() called on cx1-3-15-4.cx1.hpc.ic.ac.uk
*** at Tue Jul  5 16:48:55 2016


         ---------------------------------------------------------
                                   SCF
            by Justin Turney, Rob Parrish, and Andy Simmonett
                              RHF Reference
                        1 Threads,   2000 MiB Core
         ---------------------------------------------------------

  ==> Geometry <==

    Molecular point group: c1
    Full point group: C1

    Geometry (in Angstrom), charge = 0, multiplicity = 1:

       Center              X                  Y                   Z               Mass       
    ------------   -----------------  -----------------  -----------------  -----------------
           H          2.022684164245     1.379352147483    -1.770509159233     1.007825032070
           C          1.295419164245     1.180578147483    -0.991728159233    12.000000000000
           C          1.622405164245    -0.132362852517    -0.281688159233    12.000000000000
           H          1.311142164245     2.018556147483    -0.301859159233     1.007825032070
           H          0.314564164245     1.145157147483    -1.455692159233     1.007825032070
           C          0.606134164245    -0.429179852517     0.819175840767    12.000000000000
           H          2.612545164245    -0.081383852517     0.159279840767     1.007825032070
           H          1.621638164245    -0.953227852517    -0.989106159233     1.007825032070
           N         -0.769054835755    -0.264173852517     0.283045840767    14.003074004780
           H          0.671997164245    -1.445719852517     1.171511840767     1.007825032070
           H          0.691146164245     0.267436147483     1.639006840767     1.007825032070
           O         -0.884087835755     0.229573147483    -0.796007159233    15.994914619560
           O         -1.669000835755    -0.609542852517     0.986495840767    15.994914619560

  Running in c1 symmetry.

  Rotational constants: A =      0.25379  B =      0.09544  C =      0.07537 [cm^-1]
  Rotational constants: A =   7608.33726  B =   2861.18513  C =   2259.43402 [MHz]
  Nuclear repulsion =  258.522517497044078

  Charge       = 0
  Multiplicity = 1
  Electrons    = 48
  Nalpha       = 24
  Nbeta        = 24

  ==> Algorithm <==

  SCF Algorithm Type is DF.
  DIIS enabled.
  MOM disabled.
  Fractional occupation disabled.
  Guess Type is CORE.
  Energy threshold   = 1.00e-06
  Density threshold  = 1.00e-06
  Integral threshold = 0.00e+00

  ==> Primary Basis <==

  Basis Set: 6-31G*
    Number of shells: 50
    Number of basis function: 104
    Number of Cartesian functions: 104
    Spherical Harmonics?: false
    Max angular momentum: 2

  ==> Pre-Iterations <==

   -------------------------------------------------------
    Irrep   Nso     Nmo     Nalpha   Nbeta   Ndocc  Nsocc
   -------------------------------------------------------
     A        104     104       0       0       0       0
   -------------------------------------------------------
    Total     104     104      24      24      24       0
   -------------------------------------------------------

 OEINTS: Overlap, kinetic, potential, dipole, and quadrupole integrals
         stored in file 35.

  ==> Integral Setup <==

  ==> DFJK: Density-Fitted J/K Matrices <==

    J tasked:                  Yes
    K tasked:                  Yes
    wK tasked:                  No
    OpenMP threads:              1
    Integrals threads:           1
    Memory (MB):              1430
    Algorithm:                Core
    Integral Cache:           NONE
    Schwarz Cutoff:          1E-12
    Fitting Condition:       1E-12

   => Auxiliary Basis Set <=

  Basis Set: 
    Number of shells: 207
    Number of basis function: 661
    Number of Cartesian functions: 661
    Spherical Harmonics?: false
    Max angular momentum: 3

  Minimum eigenvalue in the overlap matrix is 3.0398786664E-03.
  Using Symmetric Orthogonalization.
  SCF Guess: Core (One-Electron) Hamiltonian.

  ==> Iterations <==

                           Total Energy        Delta E     RMS |[F,P]|

   @DF-RHF iter   1:  -246.92574212514052   -2.46926e+02   9.12414e-02 
   @DF-RHF iter   2:  -182.99483074371602    6.39309e+01   8.72467e-02 DIIS
   @DF-RHF iter   3:  -283.07106437889547   -1.00076e+02   4.96594e-02 DIIS
   @DF-RHF iter   4:  -278.03005287291171    5.04101e+00   7.05551e-02 DIIS
   @DF-RHF iter   5:  -319.24953523864144   -4.12195e+01   2.10028e-02 DIIS
   @DF-RHF iter   6:  -321.06856983575744   -1.81903e+00   1.02289e-02 DIIS
   @DF-RHF iter   7:  -321.52759606383995   -4.59026e-01   6.10303e-03 DIIS
   @DF-RHF iter   8:  -321.68557360016871   -1.57978e-01   1.15094e-03 DIIS
   @DF-RHF iter   9:  -321.69675271679296   -1.11791e-02   3.23956e-04 DIIS
   @DF-RHF iter  10:  -321.69783738661511   -1.08467e-03   1.25755e-04 DIIS
   @DF-RHF iter  11:  -321.69801265077990   -1.75264e-04   6.49315e-05 DIIS
   @DF-RHF iter  12:  -321.69805099771668   -3.83469e-05   3.35213e-05 DIIS
   @DF-RHF iter  13:  -321.69806401794972   -1.30202e-05   1.10838e-05 DIIS
   @DF-RHF iter  14:  -321.69806632826987   -2.31032e-06   3.11986e-06 DIIS
   @DF-RHF iter  15:  -321.69806650858277   -1.80313e-07   1.11162e-06 DIIS
   @DF-RHF iter  16:  -321.69806653404260   -2.54598e-08   4.54916e-07 DIIS

  ==> Post-Iterations <==

    Orbital Energies (a.u.)
    -----------------------

    Doubly Occupied:                                                      

       1A    -20.606178     2A    -20.602893     3A    -15.854590  
       4A    -11.302000     5A    -11.245855     6A    -11.199515  
       7A     -1.638764     8A     -1.426461     9A     -1.134380  
      10A     -1.016318    11A     -0.879796    12A     -0.841919  
      13A     -0.764135    14A     -0.748401    15A     -0.731398  
      16A     -0.640006    17A     -0.623266    18A     -0.579054  
      19A     -0.538881    20A     -0.508157    21A     -0.504147  
      22A     -0.480906    23A     -0.463573    24A     -0.433609  

    Virtual:                                                              

      25A      0.111607    26A      0.218464    27A      0.270021  
      28A      0.283217    29A      0.292962    30A      0.299757  
      31A      0.326588    32A      0.342824    33A      0.369310  
      34A      0.383436    35A      0.427434    36A      0.542759  
      37A      0.612087    38A      0.695580    39A      0.704134  
      40A      0.736483    41A      0.746937    42A      0.791562  
      43A      0.843320    44A      0.873285    45A      0.919858  
      46A      0.942854    47A      0.972980    48A      1.055282  
      49A      1.071406    50A      1.081934    51A      1.109419  
      52A      1.130175    53A      1.133406    54A      1.166652  
      55A      1.181866    56A      1.187831    57A      1.215495  
      58A      1.243648    59A      1.254654    60A      1.271941  
      61A      1.308741    62A      1.342041    63A      1.375385  
      64A      1.495958    65A      1.605488    66A      1.638475  
      67A      1.692002    68A      1.713110    69A      1.757358  
      70A      1.868184    71A      1.924854    72A      1.975910  
      73A      2.044779    74A      2.098696    75A      2.112329  
      76A      2.152993    77A      2.183482    78A      2.230870  
      79A      2.254849    80A      2.288249    81A      2.340401  
      82A      2.386702    83A      2.396566    84A      2.446850  
      85A      2.497501    86A      2.583704    87A      2.675990  
      88A      2.703784    89A      2.737780    90A      2.809744  
      91A      2.831230    92A      2.887695    93A      3.013525  
      94A      3.067127    95A      3.236398    96A      3.306331  
      97A      3.320965    98A      3.497408    99A      4.122451  
     100A      4.210784   101A      4.352720   102A      4.624144  
     103A      4.753352   104A      4.923125  

    Final Occupation by Irrep:
              A 
    DOCC [    24 ]

  Energy converged.

  @DF-RHF Final Energy:  -321.69806653404260

   => Energetics <=

    Nuclear Repulsion Energy =            258.5225174970440776
    One-Electron Energy =                -950.9128124663352537
    Two-Electron Energy =                 370.6922284352488077
    DFT Exchange-Correlation Energy =       0.0000000000000000
    Empirical Dispersion Energy =           0.0000000000000000
    PCM Polarization Energy =               0.0000000000000000
    EFP Energy =                            0.0000000000000000
    Total Energy =                       -321.6980665340423684

    Alert: EFP and PCM quantities not currently incorporated into SCF psivars.

Properties will be evaluated at   0.000000,   0.000000,   0.000000 Bohr
  ==> Properties <==


Properties computed using the SCF density matrix

  Nuclear Dipole Moment: (a.u.)
     X:     8.6575      Y:     2.1834      Z:    -1.4505

  Electronic Dipole Moment: (a.u.)
     X:    -7.3221      Y:    -2.3773      Z:     1.8663

  Dipole Moment: (a.u.)
     X:     1.3354      Y:    -0.1939      Z:     0.4158     Total:     1.4120

  Dipole Moment: (Debye)
     X:     3.3943      Y:    -0.4927      Z:     1.0568     Total:     3.5890


  Saving occupied orbitals to File 180.

*** tstop() called on cx1-3-15-4.cx1.hpc.ic.ac.uk at Tue Jul  5 16:49:01 2016
Module time:
	user time   =       5.47 seconds =       0.09 minutes
	system time =       0.05 seconds =       0.00 minutes
	total time  =          6 seconds =       0.10 minutes
Total time:
	user time   =       5.47 seconds =       0.09 minutes
	system time =       0.05 seconds =       0.00 minutes
	total time  =          6 seconds =       0.10 minutes


Properties will be evaluated at   0.000000,   0.000000,   0.000000 Bohr

Properties computed using the  density matrix

  Nuclear Dipole Moment: (a.u.)
     X:     8.6575      Y:     2.1834      Z:    -1.4505

  Electronic Dipole Moment: (a.u.)
     X:    -7.3221      Y:    -2.3773      Z:     1.8663

  Dipole Moment: (a.u.)
     X:     1.3354      Y:    -0.1939      Z:     0.4158     Total:     1.4120

  Dipole Moment: (Debye)
     X:     3.3943      Y:    -0.4927      Z:     1.0568     Total:     3.5890

  Quadrupole Moment: (Debye Ang)
    XX:   -40.8379     YY:   -35.6055     ZZ:   -37.1629
    XY:    -1.9969     XZ:     2.2911     YZ:     1.4167

  Traceless Quadrupole Moment: (Debye Ang)
    XX:    -2.9692     YY:     2.2633     ZZ:     0.7059
    XY:    -1.9969     XZ:     2.2911     YZ:     1.4167

  Mulliken Charges: (a.u.)
   Center  Symbol    Alpha    Beta     Spin     Total
       1     H     0.42225  0.42225  0.00000  0.15551
       2     C     3.26063  3.26063  0.00000 -0.52126
       3     C     3.17020  3.17020  0.00000 -0.34040
       4     H     0.42697  0.42697  0.00000  0.14607
       5     H     0.36461  0.36461  0.00000  0.27078
       6     C     3.10179  3.10179  0.00000 -0.20359
       7     H     0.40836  0.40836  0.00000  0.18328
       8     H     0.40744  0.40744  0.00000  0.18511
       9     N     3.20821  3.20821  0.00000  0.58357
      10     H     0.38212  0.38212  0.00000  0.23577
      11     H     0.38267  0.38267  0.00000  0.23465
      12     O     4.23733  4.23733  0.00000 -0.47467
      13     O     4.22741  4.22741  0.00000 -0.45483

   Total alpha = 24.00000, Total beta = 24.00000, Total charge =  0.00000


*** PSI4 exiting successfully. Buy a developer a beer!
