    -----------------------------------------------------------------------
          Psi4: An Open-Source Ab Initio Electronic Structure Package
                              Psi4 (no tag) Driver

                          Git: Rev {detached?}  

    J. M. Turney, A. C. Simmonett, R. M. Parrish, E. G. Hohenstein,
    F. A. Evangelista, J. T. Fermann, B. J. Mintz, L. A. Burns, J. J. Wilke,
    M. L. Abrams, N. J. Russ, M. L. Leininger, C. L. Janssen, E. T. Seidl,
    W. D. Allen, H. F. Schaefer, R. A. King, E. F. Valeev, C. D. Sherrill,
    and T. D. Crawford, WIREs Comput. Mol. Sci. 2, 556-565 (2012)
    (doi: 10.1002/wcms.93)

                         Additional Contributions by
    A. E. DePrince, M. Saitow, U. Bozkaya, A. Yu. Sokolov
    -----------------------------------------------------------------------


    Psi4 started on: Tue Jul  5 16:31:27 2016

    Process ID:   2776
    PSI4DATADIR: /export131/home/mjharvey/miniconda3/share
    Memory level set to 256.000 MB

  ==> Input File <==

--------------------------------------------------------------------------
set {
	reference rhf
	basis 6-31G*
}


set_num_threads( 1 )
memory 2 gb

molecule MOL {
0 1

H	 2.866480	 -0.465706	 0.876907
C	 2.405773	 -0.024801	 0.000000
N	 0.988830	 -0.304158	 0.000000
H	 2.866480	 -0.465706	 -0.876907
H	 2.629928	 1.045948	 0.000000
C	 0.279147	 0.434866	 1.027698
C	 0.704707	 -1.723643	 0.101515
H	 0.631775	 0.170563	 2.029844
H	 0.454051	 1.496717	 0.885836
C	 -1.210219	 0.147911	 0.930553
H	 1.191225	 -2.242348	 -0.718541
H	 1.088345	 -2.145234	 1.036170
C	 -0.795944	 -1.953356	 0.028931
H	 -1.745196	 0.620170	 1.744056
H	 -1.595970	 0.536082	 -0.010451
O	 -1.462340	 -1.226116	 1.022405
H	 -1.032108	 -2.996725	 0.192101
H	 -1.162204	 -1.664047	 -0.954493

	symmetry c1
}
ee = energy('scf')
oeprop('DIPOLE', 'QUADRUPOLE', 'MULLIKEN_CHARGES')
f=open( 'psi4out.xyz', 'w' )
f.write( "18  " )
f.write( str(ee) + "\n" )
f.write( MOL.save_string_xyz() )
f.close()
--------------------------------------------------------------------------

  Memory set to   2.000 GiB by Python script.

*** tstart() called on cx1-3-15-4.cx1.hpc.ic.ac.uk
*** at Tue Jul  5 16:31:27 2016


         ---------------------------------------------------------
                                   SCF
            by Justin Turney, Rob Parrish, and Andy Simmonett
                              RHF Reference
                        1 Threads,   2000 MiB Core
         ---------------------------------------------------------

  ==> Geometry <==

    Molecular point group: c1
    Full point group: C1

    Geometry (in Angstrom), charge = 0, multiplicity = 1:

       Center              X                  Y                   Z               Mass       
    ------------   -----------------  -----------------  -----------------  -----------------
           H          2.734911396546     0.201631068245     0.425252551170     1.007825032070
           C          2.274204396546     0.642536068245    -0.451654448830    12.000000000000
           N          0.857261396546     0.363179068245    -0.451654448830    14.003074004780
           H          2.734911396546     0.201631068245    -1.328561448830     1.007825032070
           H          2.498359396546     1.713285068245    -0.451654448830     1.007825032070
           C          0.147578396546     1.102203068245     0.576043551170    12.000000000000
           C          0.573138396546    -1.056305931755    -0.350139448830    12.000000000000
           H          0.500206396546     0.837900068245     1.578189551170     1.007825032070
           H          0.322482396546     2.164054068245     0.434181551170     1.007825032070
           C         -1.341787603454     0.815248068245     0.478898551170    12.000000000000
           H          1.059656396546    -1.575010931755    -1.170195448830     1.007825032070
           H          0.956776396546    -1.477896931755     0.584515551170     1.007825032070
           C         -0.927512603454    -1.286018931755    -0.422723448830    12.000000000000
           H         -1.876764603454     1.287507068245     1.292401551170     1.007825032070
           H         -1.727538603454     1.203419068245    -0.462105448830     1.007825032070
           O         -1.593908603454    -0.558778931755     0.570750551170    15.994914619560
           H         -1.163676603454    -2.329387931755    -0.259553448830     1.007825032070
           H         -1.293772603454    -0.996709931755    -1.406147448830     1.007825032070

  Running in c1 symmetry.

  Rotational constants: A =      0.16247  B =      0.07909  C =      0.05780 [cm^-1]
  Rotational constants: A =   4870.86837  B =   2370.93012  C =   1732.86143 [MHz]
  Nuclear repulsion =  341.547301768963280

  Charge       = 0
  Multiplicity = 1
  Electrons    = 56
  Nalpha       = 28
  Nbeta        = 28

  ==> Algorithm <==

  SCF Algorithm Type is DF.
  DIIS enabled.
  MOM disabled.
  Fractional occupation disabled.
  Guess Type is CORE.
  Energy threshold   = 1.00e-06
  Density threshold  = 1.00e-06
  Integral threshold = 0.00e+00

  ==> Primary Basis <==

  Basis Set: 6-31G*
    Number of shells: 64
    Number of basis function: 127
    Number of Cartesian functions: 127
    Spherical Harmonics?: false
    Max angular momentum: 2

  ==> Pre-Iterations <==

   -------------------------------------------------------
    Irrep   Nso     Nmo     Nalpha   Nbeta   Ndocc  Nsocc
   -------------------------------------------------------
     A        127     127       0       0       0       0
   -------------------------------------------------------
    Total     127     127      28      28      28       0
   -------------------------------------------------------

 OEINTS: Overlap, kinetic, potential, dipole, and quadrupole integrals
         stored in file 35.

  ==> Integral Setup <==

  ==> DFJK: Density-Fitted J/K Matrices <==

    J tasked:                  Yes
    K tasked:                  Yes
    wK tasked:                  No
    OpenMP threads:              1
    Integrals threads:           1
    Memory (MB):              1430
    Algorithm:                Core
    Integral Cache:           NONE
    Schwarz Cutoff:          1E-12
    Fitting Condition:       1E-12

   => Auxiliary Basis Set <=

  Basis Set: 
    Number of shells: 267
    Number of basis function: 842
    Number of Cartesian functions: 842
    Spherical Harmonics?: false
    Max angular momentum: 3

  Minimum eigenvalue in the overlap matrix is 3.2307364201E-03.
  Using Symmetric Orthogonalization.
  SCF Guess: Core (One-Electron) Hamiltonian.

  ==> Iterations <==

                           Total Energy        Delta E     RMS |[F,P]|

   @DF-RHF iter   1:  -254.48846241216302   -2.54488e+02   7.04400e-02 
   @DF-RHF iter   2:  -176.06181795859243    7.84266e+01   7.37313e-02 DIIS
   @DF-RHF iter   3:  -269.58240964453080   -9.35206e+01   5.34819e-02 DIIS
   @DF-RHF iter   4:  -284.63441126916575   -1.50520e+01   5.68044e-02 DIIS
   @DF-RHF iter   5:  -324.30074254324211   -3.96663e+01   1.01323e-02 DIIS
   @DF-RHF iter   6:  -324.88365977008107   -5.82917e-01   4.47024e-03 DIIS
   @DF-RHF iter   7:  -325.01206764472408   -1.28408e-01   1.29304e-03 DIIS
   @DF-RHF iter   8:  -325.02614717425229   -1.40795e-02   3.25694e-04 DIIS
   @DF-RHF iter   9:  -325.02752912443657   -1.38195e-03   7.27976e-05 DIIS
   @DF-RHF iter  10:  -325.02758178236002   -5.26579e-05   3.22124e-05 DIIS
   @DF-RHF iter  11:  -325.02759552700650   -1.37446e-05   5.41485e-06 DIIS
   @DF-RHF iter  12:  -325.02759597954525   -4.52539e-07   1.66918e-06 DIIS
   @DF-RHF iter  13:  -325.02759601855792   -3.90127e-08   4.40709e-07 DIIS

  ==> Post-Iterations <==

    Orbital Energies (a.u.)
    -----------------------

    Doubly Occupied:                                                      

       1A    -20.554091     2A    -15.548633     3A    -11.266540  
       4A    -11.266052     5A    -11.244667     6A    -11.243863  
       7A    -11.241381     8A     -1.383500     9A     -1.232410  
      10A     -1.038526    11A     -0.981214    12A     -0.882883  
      13A     -0.868802    14A     -0.774843    15A     -0.683543  
      16A     -0.645953    17A     -0.643448    18A     -0.633463  
      19A     -0.629866    20A     -0.570940    21A     -0.557009  
      22A     -0.542017    23A     -0.527437    24A     -0.501992  
      25A     -0.484344    26A     -0.452372    27A     -0.408222  
      28A     -0.351970  

    Virtual:                                                              

      29A      0.232991    30A      0.258071    31A      0.273518  
      32A      0.284665    33A      0.309378    34A      0.310550  
      35A      0.322211    36A      0.323991    37A      0.334170  
      38A      0.343899    39A      0.349158    40A      0.359173  
      41A      0.387417    42A      0.429790    43A      0.437512  
      44A      0.451623    45A      0.465685    46A      0.481447  
      47A      0.718064    48A      0.732978    49A      0.746793  
      50A      0.782713    51A      0.796577    52A      0.806315  
      53A      0.832689    54A      0.841575    55A      0.889162  
      56A      0.905282    57A      0.933729    58A      0.974018  
      59A      0.984197    60A      1.058011    61A      1.065235  
      62A      1.107494    63A      1.113417    64A      1.125429  
      65A      1.136135    66A      1.151479    67A      1.167909  
      68A      1.180470    69A      1.193592    70A      1.200726  
      71A      1.205892    72A      1.234347    73A      1.251003  
      74A      1.261872    75A      1.301287    76A      1.319458  
      77A      1.408892    78A      1.471143    79A      1.527935  
      80A      1.639522    81A      1.644998    82A      1.651148  
      83A      1.669402    84A      1.710929    85A      1.721903  
      86A      1.874575    87A      1.902519    88A      1.985665  
      89A      2.003569    90A      2.065219    91A      2.153606  
      92A      2.193142    93A      2.200249    94A      2.230890  
      95A      2.304651    96A      2.313606    97A      2.350627  
      98A      2.389070    99A      2.411396   100A      2.415560  
     101A      2.451212   102A      2.483047   103A      2.493415  
     104A      2.529652   105A      2.593400   106A      2.620017  
     107A      2.655083   108A      2.679109   109A      2.777278  
     110A      2.778907   111A      2.807965   112A      2.902135  
     113A      2.915764   114A      2.944926   115A      3.085684  
     116A      3.135764   117A      3.160372   118A      3.221018  
     119A      3.253878   120A      3.327525   121A      4.395244  
     122A      4.504217   123A      4.645631   124A      4.702411  
     125A      4.767302   126A      4.940887   127A      4.953551  

    Final Occupation by Irrep:
              A 
    DOCC [    28 ]

  Energy converged.

  @DF-RHF Final Energy:  -325.02759601855792

   => Energetics <=

    Nuclear Repulsion Energy =            341.5473017689632798
    One-Electron Energy =               -1118.8299142006192142
    Two-Electron Energy =                 452.2550164131006341
    DFT Exchange-Correlation Energy =       0.0000000000000000
    Empirical Dispersion Energy =           0.0000000000000000
    PCM Polarization Energy =               0.0000000000000000
    EFP Energy =                            0.0000000000000000
    Total Energy =                       -325.0275960185553004

    Alert: EFP and PCM quantities not currently incorporated into SCF psivars.

Properties will be evaluated at   0.000000,   0.000000,   0.000000 Bohr
  ==> Properties <==


Properties computed using the SCF density matrix

  Nuclear Dipole Moment: (a.u.)
     X:     4.4387      Y:     1.1497      Z:    -0.7119

  Electronic Dipole Moment: (a.u.)
     X:    -3.9144      Y:    -0.9843      Z:     0.5768

  Dipole Moment: (a.u.)
     X:     0.5242      Y:     0.1655      Z:    -0.1350     Total:     0.5661

  Dipole Moment: (Debye)
     X:     1.3325      Y:     0.4205      Z:    -0.3432     Total:     1.4388


  Saving occupied orbitals to File 180.

*** tstop() called on cx1-3-15-4.cx1.hpc.ic.ac.uk at Tue Jul  5 16:31:37 2016
Module time:
	user time   =       9.80 seconds =       0.16 minutes
	system time =       0.06 seconds =       0.00 minutes
	total time  =         10 seconds =       0.17 minutes
Total time:
	user time   =       9.80 seconds =       0.16 minutes
	system time =       0.06 seconds =       0.00 minutes
	total time  =         10 seconds =       0.17 minutes


Properties will be evaluated at   0.000000,   0.000000,   0.000000 Bohr

Properties computed using the  density matrix

  Nuclear Dipole Moment: (a.u.)
     X:     4.4387      Y:     1.1497      Z:    -0.7119

  Electronic Dipole Moment: (a.u.)
     X:    -3.9144      Y:    -0.9843      Z:     0.5768

  Dipole Moment: (a.u.)
     X:     0.5242      Y:     0.1655      Z:    -0.1350     Total:     0.5661

  Dipole Moment: (Debye)
     X:     1.3325      Y:     0.4205      Z:    -0.3432     Total:     1.4388

  Quadrupole Moment: (Debye Ang)
    XX:   -45.6311     YY:   -40.9967     ZZ:   -45.6776
    XY:    -1.6284     XZ:     1.2851     YZ:     2.9237

  Traceless Quadrupole Moment: (Debye Ang)
    XX:    -1.5293     YY:     3.1051     ZZ:    -1.5758
    XY:    -1.6284     XZ:     1.2851     YZ:     2.9237

  Mulliken Charges: (a.u.)
   Center  Symbol    Alpha    Beta     Spin     Total
       1     H     0.43184  0.43184  0.00000  0.13633
       2     C     3.14090  3.14090  0.00000 -0.28181
       3     N     3.78755  3.78755  0.00000 -0.57509
       4     H     0.41535  0.41535  0.00000  0.16931
       5     H     0.41607  0.41607  0.00000  0.16785
       6     C     3.06818  3.06818  0.00000 -0.13636
       7     C     3.06855  3.06855  0.00000 -0.13711
       8     H     0.42891  0.42891  0.00000  0.14219
       9     H     0.41669  0.41669  0.00000  0.16661
      10     C     2.99756  2.99756  0.00000  0.00488
      11     H     0.41655  0.41655  0.00000  0.16689
      12     H     0.42825  0.42825  0.00000  0.14350
      13     C     2.99738  2.99738  0.00000  0.00524
      14     H     0.41339  0.41339  0.00000  0.17323
      15     H     0.42390  0.42390  0.00000  0.15220
      16     O     4.31200  4.31200  0.00000 -0.62401
      17     H     0.41319  0.41319  0.00000  0.17361
      18     H     0.42374  0.42374  0.00000  0.15252

   Total alpha = 28.00000, Total beta = 28.00000, Total charge = -0.00000


*** PSI4 exiting successfully. Buy a developer a beer!
