    -----------------------------------------------------------------------
          Psi4: An Open-Source Ab Initio Electronic Structure Package
                              Psi4 (no tag) Driver

                          Git: Rev {detached?}  

    J. M. Turney, A. C. Simmonett, R. M. Parrish, E. G. Hohenstein,
    F. A. Evangelista, J. T. Fermann, B. J. Mintz, L. A. Burns, J. J. Wilke,
    M. L. Abrams, N. J. Russ, M. L. Leininger, C. L. Janssen, E. T. Seidl,
    W. D. Allen, H. F. Schaefer, R. A. King, E. F. Valeev, C. D. Sherrill,
    and T. D. Crawford, WIREs Comput. Mol. Sci. 2, 556-565 (2012)
    (doi: 10.1002/wcms.93)

                         Additional Contributions by
    A. E. DePrince, M. Saitow, U. Bozkaya, A. Yu. Sokolov
    -----------------------------------------------------------------------


    Psi4 started on: Tue Jul  5 17:12:24 2016

    Process ID:  18927
    PSI4DATADIR: /export131/home/mjharvey/miniconda3/share
    Memory level set to 256.000 MB

  ==> Input File <==

--------------------------------------------------------------------------
set {
	reference rhf
	basis 6-31G*
}


set_num_threads( 1 )
memory 2 gb

molecule MOL {
0 1

O	 1.119663	 -1.324449	 -0.210947
C	 0.175826	 -0.616819	 -0.029657
C	 -1.147217	 -0.890909	 -0.723009
C	 0.236895	 0.561132	 0.916957
C	 -1.047154	 -0.600408	 -2.229242
H	 -1.892633	 -0.240897	 -0.277879
H	 -1.456663	 -1.919830	 -0.563035
C	 0.149006	 -1.302371	 -2.876593
H	 -1.973367	 -0.915237	 -2.696572
H	 -0.962710	 0.473188	 -2.390515
C	 0.075323	 -1.399736	 -4.404711
H	 0.247240	 -2.302033	 -2.457363
H	 1.057485	 -0.767858	 -2.606759
C	 -1.053427	 -2.288511	 -4.930067
H	 1.023541	 -1.787350	 -4.768483
H	 -0.024340	 -0.400645	 -4.824201
H	 -0.984148	 -3.291584	 -4.518035
H	 -1.004790	 -2.372263	 -6.011279
H	 -2.032469	 -1.894716	 -4.678683
H	 0.129532	 1.486106	 0.356456
H	 1.182614	 0.566556	 1.440761
H	 -0.580481	 0.523072	 1.631275

	symmetry c1
}
set optking {
	frozen_dihedral = ("
		6 3 2 1,
		6 3 5 8,
		12 8 11 15
	")
}

ee = energy('scf')
oeprop('DIPOLE', 'QUADRUPOLE', 'MULLIKEN_CHARGES')
f=open( 'psi4out.xyz', 'w' )
f.write( "22  " )
f.write( str(ee) + "\n" )
f.write( MOL.save_string_xyz() )
f.close()
--------------------------------------------------------------------------

  Memory set to   2.000 GiB by Python script.

*** tstart() called on cx1-3-4-4.cx1.hpc.ic.ac.uk
*** at Tue Jul  5 17:12:24 2016


         ---------------------------------------------------------
                                   SCF
            by Justin Turney, Rob Parrish, and Andy Simmonett
                              RHF Reference
                        1 Threads,   2000 MiB Core
         ---------------------------------------------------------

  ==> Geometry <==

    Molecular point group: c1
    Full point group: C1

    Geometry (in Angstrom), charge = 0, multiplicity = 1:

       Center              X                  Y                   Z               Mass       
    ------------   -----------------  -----------------  -----------------  -----------------
           O          1.301497673928    -0.337810095604     1.605875040304    15.994914619560
           C          0.357660673928     0.369819904396     1.787165040304    12.000000000000
           C         -0.965382326072     0.095729904396     1.093813040304    12.000000000000
           C          0.418729673928     1.547770904396     2.733779040304    12.000000000000
           C         -0.865319326072     0.386230904396    -0.412419959696    12.000000000000
           H         -1.710798326072     0.745741904396     1.538943040304     1.007825032070
           H         -1.274828326072    -0.933191095604     1.253787040304     1.007825032070
           C          0.330840673928    -0.315732095604    -1.059770959696    12.000000000000
           H         -1.791532326072     0.071401904396    -0.879749959696     1.007825032070
           H         -0.780875326072     1.459826904396    -0.573692959696     1.007825032070
           C          0.257157673928    -0.413097095604    -2.587888959696    12.000000000000
           H          0.429074673928    -1.315394095604    -0.640540959696     1.007825032070
           H          1.239319673928     0.218780904396    -0.789936959696     1.007825032070
           C         -0.871592326072    -1.301872095604    -3.113244959696    12.000000000000
           H          1.205375673928    -0.800711095604    -2.951660959696     1.007825032070
           H          0.157494673928     0.585993904396    -3.007378959696     1.007825032070
           H         -0.802313326072    -2.304945095604    -2.701212959696     1.007825032070
           H         -0.822955326072    -1.385624095604    -4.194456959696     1.007825032070
           H         -1.850634326072    -0.908077095604    -2.861860959696     1.007825032070
           H          0.311366673928     2.472744904396     2.173278040304     1.007825032070
           H          1.364448673928     1.553194904396     3.257583040304     1.007825032070
           H         -0.398646326072     1.509710904396     3.448097040304     1.007825032070

  Running in c1 symmetry.

  Rotational constants: A =      0.16200  B =      0.02944  C =      0.02754 [cm^-1]
  Rotational constants: A =   4856.62086  B =    882.69467  C =    825.54416 [MHz]
  Nuclear repulsion =  383.469078297126998

  Charge       = 0
  Multiplicity = 1
  Electrons    = 64
  Nalpha       = 32
  Nbeta        = 32

  ==> Algorithm <==

  SCF Algorithm Type is DF.
  DIIS enabled.
  MOM disabled.
  Fractional occupation disabled.
  Guess Type is CORE.
  Energy threshold   = 1.00e-06
  Density threshold  = 1.00e-06
  Integral threshold = 0.00e+00

  ==> Primary Basis <==

  Basis Set: 6-31G*
    Number of shells: 76
    Number of basis function: 148
    Number of Cartesian functions: 148
    Spherical Harmonics?: false
    Max angular momentum: 2

  ==> Pre-Iterations <==

   -------------------------------------------------------
    Irrep   Nso     Nmo     Nalpha   Nbeta   Ndocc  Nsocc
   -------------------------------------------------------
     A        148     148       0       0       0       0
   -------------------------------------------------------
    Total     148     148      32      32      32       0
   -------------------------------------------------------

 OEINTS: Overlap, kinetic, potential, dipole, and quadrupole integrals
         stored in file 35.

  ==> Integral Setup <==

  ==> DFJK: Density-Fitted J/K Matrices <==

    J tasked:                  Yes
    K tasked:                  Yes
    wK tasked:                  No
    OpenMP threads:              1
    Integrals threads:           1
    Memory (MB):              1430
    Algorithm:                Core
    Integral Cache:           NONE
    Schwarz Cutoff:          1E-12
    Fitting Condition:       1E-12

   => Auxiliary Basis Set <=

  Basis Set: 
    Number of shells: 318
    Number of basis function: 998
    Number of Cartesian functions: 998
    Spherical Harmonics?: false
    Max angular momentum: 3

  Minimum eigenvalue in the overlap matrix is 3.5293120704E-03.
  Using Symmetric Orthogonalization.
  SCF Guess: Core (One-Electron) Hamiltonian.

  ==> Iterations <==

                           Total Energy        Delta E     RMS |[F,P]|

   @DF-RHF iter   1:  -257.21333185163076   -2.57213e+02   6.89925e-02 
   @DF-RHF iter   2:  -179.33123693238349    7.78821e+01   7.06124e-02 DIIS
   @DF-RHF iter   3:  -298.98539072445226   -1.19654e+02   3.33906e-02 DIIS
   @DF-RHF iter   4:  -168.33298197078398    1.30652e+02   7.54625e-02 DIIS
   @DF-RHF iter   5:  -262.69836967142692   -9.43654e+01   5.70783e-02 DIIS
   @DF-RHF iter   6:  -315.22406131952675   -5.25257e+01   3.95273e-02 DIIS
   @DF-RHF iter   7:  -345.29007114380067   -3.00660e+01   1.11018e-02 DIIS
   @DF-RHF iter   8:  -347.64342423440405   -2.35335e+00   6.89443e-03 DIIS
   @DF-RHF iter   9:  -348.06665770008215   -4.23233e-01   1.26210e-03 DIIS
   @DF-RHF iter  10:  -348.08730179804002   -2.06441e-02   4.91719e-04 DIIS
   @DF-RHF iter  11:  -348.09050516589957   -3.20337e-03   1.46292e-04 DIIS
   @DF-RHF iter  12:  -348.09090033765756   -3.95172e-04   4.47978e-05 DIIS
   @DF-RHF iter  13:  -348.09097011912456   -6.97815e-05   1.68710e-05 DIIS
   @DF-RHF iter  14:  -348.09097905460078   -8.93548e-06   7.42139e-06 DIIS
   @DF-RHF iter  15:  -348.09098042376695   -1.36917e-06   2.48703e-06 DIIS
   @DF-RHF iter  16:  -348.09098053742423   -1.13657e-07   5.84232e-07 DIIS

  ==> Post-Iterations <==

    Orbital Energies (a.u.)
    -----------------------

    Doubly Occupied:                                                      

       1A    -20.547384     2A    -11.324943     3A    -11.229765  
       4A    -11.229390     5A    -11.226080     6A    -11.211274  
       7A    -11.206347     8A    -11.205915     9A     -1.394924  
      10A     -1.089946    11A     -1.040766    12A     -0.999221  
      13A     -0.931372    14A     -0.854359    15A     -0.780474  
      16A     -0.731408    17A     -0.658959    18A     -0.644173  
      19A     -0.623570    20A     -0.609002    21A     -0.597121  
      22A     -0.581612    23A     -0.558636    24A     -0.547485  
      25A     -0.527158    26A     -0.523677    27A     -0.497210  
      28A     -0.482707    29A     -0.461790    30A     -0.454284  
      31A     -0.448404    32A     -0.393724  

    Virtual:                                                              

      33A      0.161919    34A      0.223903    35A      0.244110  
      36A      0.270195    37A      0.280349    38A      0.284460  
      39A      0.301340    40A      0.309312    41A      0.313592  
      42A      0.322028    43A      0.330415    44A      0.345200  
      45A      0.354093    46A      0.366743    47A      0.378692  
      48A      0.392961    49A      0.413774    50A      0.425326  
      51A      0.457318    52A      0.465503    53A      0.497884  
      54A      0.528877    55A      0.706196    56A      0.716304  
      57A      0.734913    58A      0.745134    59A      0.762696  
      60A      0.765442    61A      0.769020    62A      0.825860  
      63A      0.844819    64A      0.880571    65A      0.899893  
      66A      0.913977    67A      0.938259    68A      0.969146  
      69A      0.979965    70A      0.990834    71A      0.999208  
      72A      1.019586    73A      1.099104    74A      1.106324  
      75A      1.116898    76A      1.137484    77A      1.146839  
      78A      1.151671    79A      1.156732    80A      1.163134  
      81A      1.176402    82A      1.197691    83A      1.210483  
      84A      1.213513    85A      1.225701    86A      1.239575  
      87A      1.247161    88A      1.264047    89A      1.276656  
      90A      1.292748    91A      1.307801    92A      1.388147  
      93A      1.428186    94A      1.464235    95A      1.502694  
      96A      1.551310    97A      1.686511    98A      1.707740  
      99A      1.766956   100A      1.782059   101A      1.796904  
     102A      1.856263   103A      1.899693   104A      1.978198  
     105A      1.997004   106A      2.046950   107A      2.079379  
     108A      2.118853   109A      2.130149   110A      2.168321  
     111A      2.188923   112A      2.231623   113A      2.256197  
     114A      2.271795   115A      2.296718   116A      2.303264  
     117A      2.346340   118A      2.356244   119A      2.402266  
     120A      2.471395   121A      2.498012   122A      2.516409  
     123A      2.546601   124A      2.635403   125A      2.657764  
     126A      2.680856   127A      2.694132   128A      2.732637  
     129A      2.747879   130A      2.768857   131A      2.775661  
     132A      2.849603   133A      2.926422   134A      2.986305  
     135A      2.999213   136A      3.070912   137A      3.115597  
     138A      3.159777   139A      3.377520   140A      3.389695  
     141A      4.473843   142A      4.540385   143A      4.586972  
     144A      4.684535   145A      4.789593   146A      4.867549  
     147A      4.930110   148A      5.029782  

    Final Occupation by Irrep:
              A 
    DOCC [    32 ]

  Energy converged.

  @DF-RHF Final Energy:  -348.09098053742423

   => Energetics <=

    Nuclear Repulsion Energy =            383.4690782971269982
    One-Electron Energy =               -1231.8936449478946997
    Two-Electron Energy =                 500.3335861133440403
    DFT Exchange-Correlation Energy =       0.0000000000000000
    Empirical Dispersion Energy =           0.0000000000000000
    PCM Polarization Energy =               0.0000000000000000
    EFP Energy =                            0.0000000000000000
    Total Energy =                       -348.0909805374236612

    Alert: EFP and PCM quantities not currently incorporated into SCF psivars.

Properties will be evaluated at   0.000000,   0.000000,   0.000000 Bohr
  ==> Properties <==


Properties computed using the SCF density matrix

  Nuclear Dipole Moment: (a.u.)
     X:    -4.4238      Y:     0.9072      Z:    -6.4878

  Electronic Dipole Moment: (a.u.)
     X:     3.5562      Y:    -0.2413      Z:     6.6256

  Dipole Moment: (a.u.)
     X:    -0.8676      Y:     0.6659      Z:     0.1377     Total:     1.1023

  Dipole Moment: (Debye)
     X:    -2.2052      Y:     1.6925      Z:     0.3501     Total:     2.8018


  Saving occupied orbitals to File 180.

*** tstop() called on cx1-3-4-4.cx1.hpc.ic.ac.uk at Tue Jul  5 17:12:43 2016
Module time:
	user time   =      17.70 seconds =       0.29 minutes
	system time =       0.19 seconds =       0.00 minutes
	total time  =         19 seconds =       0.32 minutes
Total time:
	user time   =      17.70 seconds =       0.29 minutes
	system time =       0.19 seconds =       0.00 minutes
	total time  =         19 seconds =       0.32 minutes


Properties will be evaluated at   0.000000,   0.000000,   0.000000 Bohr

Properties computed using the  density matrix

  Nuclear Dipole Moment: (a.u.)
     X:    -4.4238      Y:     0.9072      Z:    -6.4878

  Electronic Dipole Moment: (a.u.)
     X:     3.5562      Y:    -0.2413      Z:     6.6256

  Dipole Moment: (a.u.)
     X:    -0.8676      Y:     0.6659      Z:     0.1377     Total:     1.1023

  Dipole Moment: (Debye)
     X:    -2.2052      Y:     1.6925      Z:     0.3501     Total:     2.8018

  Quadrupole Moment: (Debye Ang)
    XX:   -55.0881     YY:   -50.4886     ZZ:   -50.1475
    XY:     1.7080     XZ:    -3.7970     YZ:     3.1586

  Traceless Quadrupole Moment: (Debye Ang)
    XX:    -3.1800     YY:     1.4195     ZZ:     1.7606
    XY:     1.7080     XZ:    -3.7970     YZ:     3.1586

  Mulliken Charges: (a.u.)
   Center  Symbol    Alpha    Beta     Spin     Total
       1     O     4.26032  4.26032  0.00000 -0.52064
       2     C     2.74017  2.74017  0.00000  0.51965
       3     C     3.19972  3.19972  0.00000 -0.39944
       4     C     3.28914  3.28914  0.00000 -0.57829
       5     C     3.16463  3.16463  0.00000 -0.32927
       6     H     0.41700  0.41700  0.00000  0.16601
       7     H     0.40012  0.40012  0.00000  0.19976
       8     C     3.15299  3.15299  0.00000 -0.30598
       9     H     0.41303  0.41303  0.00000  0.17393
      10     H     0.42061  0.42061  0.00000  0.15879
      11     C     3.15381  3.15381  0.00000 -0.30761
      12     H     0.41283  0.41283  0.00000  0.17434
      13     H     0.41234  0.41234  0.00000  0.17531
      14     C     3.24126  3.24126  0.00000 -0.48251
      15     H     0.41904  0.41904  0.00000  0.16192
      16     H     0.42643  0.42643  0.00000  0.14715
      17     H     0.42148  0.42148  0.00000  0.15704
      18     H     0.41921  0.41921  0.00000  0.16158
      19     H     0.42325  0.42325  0.00000  0.15350
      20     H     0.40734  0.40734  0.00000  0.18531
      21     H     0.39679  0.39679  0.00000  0.20642
      22     H     0.40848  0.40848  0.00000  0.18303

   Total alpha = 32.00000, Total beta = 32.00000, Total charge =  0.00000


*** PSI4 exiting successfully. Buy a developer a beer!
