    -----------------------------------------------------------------------
          Psi4: An Open-Source Ab Initio Electronic Structure Package
                              Psi4 (no tag) Driver

                          Git: Rev {detached?}  

    J. M. Turney, A. C. Simmonett, R. M. Parrish, E. G. Hohenstein,
    F. A. Evangelista, J. T. Fermann, B. J. Mintz, L. A. Burns, J. J. Wilke,
    M. L. Abrams, N. J. Russ, M. L. Leininger, C. L. Janssen, E. T. Seidl,
    W. D. Allen, H. F. Schaefer, R. A. King, E. F. Valeev, C. D. Sherrill,
    and T. D. Crawford, WIREs Comput. Mol. Sci. 2, 556-565 (2012)
    (doi: 10.1002/wcms.93)

                         Additional Contributions by
    A. E. DePrince, M. Saitow, U. Bozkaya, A. Yu. Sokolov
    -----------------------------------------------------------------------


    Psi4 started on: Tue Jul  5 16:29:55 2016

    Process ID:  11733
    PSI4DATADIR: /export131/home/mjharvey/miniconda3/share
    Memory level set to 256.000 MB

  ==> Input File <==

--------------------------------------------------------------------------
set {
	reference rhf
	basis 6-31G*
}


set_num_threads( 1 )
memory 2 gb

molecule MOL {
0 1

H	 -0.443011	 2.058191	 -1.082205
C	 0.557503	 1.679937	 -0.867300
N	 0.538815	 0.649616	 0.000000
O	 1.534079	 2.155266	 -1.366870
C	 1.521968	 -0.411503	 0.000000
H	 -0.192644	 0.624219	 0.672761
H	 2.150599	 -0.357004	 -0.881901
H	 0.999455	 -1.354525	 0.000000
H	 2.150599	 -0.357004	 0.881901

	symmetry c1
}
set optking {
	frozen_dihedral = ("
		6 3 5 7
	")
}

ee = energy('scf')
oeprop('DIPOLE', 'QUADRUPOLE', 'MULLIKEN_CHARGES')
f=open( 'psi4out.xyz', 'w' )
f.write( "9  " )
f.write( str(ee) + "\n" )
f.write( MOL.save_string_xyz() )
f.close()
--------------------------------------------------------------------------

  Memory set to   2.000 GiB by Python script.

*** tstart() called on cx1-1-4-3.cx1.hpc.ic.ac.uk
*** at Tue Jul  5 16:29:56 2016


         ---------------------------------------------------------
                                   SCF
            by Justin Turney, Rob Parrish, and Andy Simmonett
                              RHF Reference
                        1 Threads,   2000 MiB Core
         ---------------------------------------------------------

  ==> Geometry <==

    Molecular point group: c1
    Full point group: C1

    Geometry (in Angstrom), charge = 0, multiplicity = 1:

       Center              X                  Y                   Z               Mass       
    ------------   -----------------  -----------------  -----------------  -----------------
           H         -1.488754579686     1.051878167719    -0.528600415303     1.007825032070
           C         -0.488240579686     0.673624167719    -0.313695415303    12.000000000000
           N         -0.506928579686    -0.356696832281     0.553604584697    14.003074004780
           O          0.488335420314     1.148953167719    -0.813265415303    15.994914619560
           C          0.476224420314    -1.417815832281     0.553604584697    12.000000000000
           H         -1.238387579686    -0.382093832281     1.226365584697     1.007825032070
           H          1.104855420314    -1.363316832281    -0.328296415303     1.007825032070
           H         -0.046288579686    -2.360837832281     0.553604584697     1.007825032070
           H          1.104855420314    -1.363316832281     1.435505584697     1.007825032070

  Running in c1 symmetry.

  Rotational constants: A =      0.70410  B =      0.19905  C =      0.16200 [cm^-1]
  Rotational constants: A =  21108.46571  B =   5967.24259  C =   4856.56614 [MHz]
  Nuclear repulsion =  122.153322575908476

  Charge       = 0
  Multiplicity = 1
  Electrons    = 32
  Nalpha       = 16
  Nbeta        = 16

  ==> Algorithm <==

  SCF Algorithm Type is DF.
  DIIS enabled.
  MOM disabled.
  Fractional occupation disabled.
  Guess Type is CORE.
  Energy threshold   = 1.00e-06
  Density threshold  = 1.00e-06
  Integral threshold = 0.00e+00

  ==> Primary Basis <==

  Basis Set: 6-31G*
    Number of shells: 34
    Number of basis function: 70
    Number of Cartesian functions: 70
    Spherical Harmonics?: false
    Max angular momentum: 2

  ==> Pre-Iterations <==

   -------------------------------------------------------
    Irrep   Nso     Nmo     Nalpha   Nbeta   Ndocc  Nsocc
   -------------------------------------------------------
     A         70      70       0       0       0       0
   -------------------------------------------------------
    Total      70      70      16      16      16       0
   -------------------------------------------------------

 OEINTS: Overlap, kinetic, potential, dipole, and quadrupole integrals
         stored in file 35.

  ==> Integral Setup <==

  ==> DFJK: Density-Fitted J/K Matrices <==

    J tasked:                  Yes
    K tasked:                  Yes
    wK tasked:                  No
    OpenMP threads:              1
    Integrals threads:           1
    Memory (MB):              1430
    Algorithm:                Core
    Integral Cache:           NONE
    Schwarz Cutoff:          1E-12
    Fitting Condition:       1E-12

   => Auxiliary Basis Set <=

  Basis Set: 
    Number of shells: 141
    Number of basis function: 449
    Number of Cartesian functions: 449
    Spherical Harmonics?: false
    Max angular momentum: 3

  Minimum eigenvalue in the overlap matrix is 4.7771591631E-03.
  Using Symmetric Orthogonalization.
  SCF Guess: Core (One-Electron) Hamiltonian.

  ==> Iterations <==

                           Total Energy        Delta E     RMS |[F,P]|

   @DF-RHF iter   1:  -166.82075137841616   -1.66821e+02   9.44418e-02 
   @DF-RHF iter   2:  -130.15179171154372    3.66690e+01   8.30664e-02 DIIS
   @DF-RHF iter   3:  -190.09276899091543   -5.99410e+01   5.36135e-02 DIIS
   @DF-RHF iter   4:  -207.16668540174754   -1.70739e+01   1.82661e-02 DIIS
   @DF-RHF iter   5:  -207.89063312598648   -7.23948e-01   5.27394e-03 DIIS
   @DF-RHF iter   6:  -207.94819433362881   -5.75612e-02   8.61590e-04 DIIS
   @DF-RHF iter   7:  -207.95036610840287   -2.17177e-03   2.35658e-04 DIIS
   @DF-RHF iter   8:  -207.95060170624242   -2.35598e-04   1.00203e-04 DIIS
   @DF-RHF iter   9:  -207.95063496759172   -3.32613e-05   5.39335e-05 DIIS
   @DF-RHF iter  10:  -207.95064471889765   -9.75131e-06   2.56455e-05 DIIS
   @DF-RHF iter  11:  -207.95064719469053   -2.47579e-06   8.18541e-06 DIIS
   @DF-RHF iter  12:  -207.95064742006758   -2.25377e-07   1.88665e-06 DIIS
   @DF-RHF iter  13:  -207.95064744112017   -2.10526e-08   7.09758e-07 DIIS

  ==> Post-Iterations <==

    Orbital Energies (a.u.)
    -----------------------

    Doubly Occupied:                                                      

       1A    -20.531438     2A    -15.583248     3A    -11.344180  
       4A    -11.262370     5A     -1.390838     6A     -1.234480  
       7A     -0.967505     8A     -0.808477     9A     -0.742219  
      10A     -0.641732    11A     -0.633531    12A     -0.594510  
      13A     -0.558195    14A     -0.528045    15A     -0.425964  
      16A     -0.387113  

    Virtual:                                                              

      17A      0.198550    18A      0.227414    19A      0.267113  
      20A      0.291456    21A      0.316879    22A      0.323671  
      23A      0.385187    24A      0.448462    25A      0.572715  
      26A      0.716430    27A      0.717599    28A      0.779148  
      29A      0.805349    30A      0.857221    31A      0.954166  
      32A      0.996120    33A      1.023494    34A      1.068570  
      35A      1.105741    36A      1.117684    37A      1.146543  
      38A      1.180064    39A      1.206250    40A      1.221631  
      41A      1.321252    42A      1.322696    43A      1.404745  
      44A      1.417558    45A      1.587168    46A      1.678028  
      47A      1.802768    48A      1.832463    49A      1.855495  
      50A      2.051564    51A      2.136533    52A      2.158359  
      53A      2.234436    54A      2.310990    55A      2.345199  
      56A      2.471932    57A      2.510314    58A      2.609345  
      59A      2.659749    60A      2.765618    61A      2.813411  
      62A      2.927957    63A      3.028485    64A      3.142609  
      65A      3.325814    66A      3.472112    67A      4.270420  
      68A      4.351665    69A      4.585127    70A      4.723873  

    Final Occupation by Irrep:
              A 
    DOCC [    16 ]

  Energy converged.

  @DF-RHF Final Energy:  -207.95064744112017

   => Energetics <=

    Nuclear Repulsion Energy =            122.1533225759084758
    One-Electron Energy =                -524.9402902902659207
    Two-Electron Energy =                 194.8363202732372770
    DFT Exchange-Correlation Energy =       0.0000000000000000
    Empirical Dispersion Energy =           0.0000000000000000
    PCM Polarization Energy =               0.0000000000000000
    EFP Energy =                            0.0000000000000000
    Total Energy =                       -207.9506474411201680

    Alert: EFP and PCM quantities not currently incorporated into SCF psivars.

Properties will be evaluated at   0.000000,   0.000000,   0.000000 Bohr
  ==> Properties <==


Properties computed using the SCF density matrix

  Nuclear Dipole Moment: (a.u.)
     X:    -0.5247      Y:    -4.1349      Z:     2.2056

  Electronic Dipole Moment: (a.u.)
     X:    -0.4242      Y:     3.2088      Z:    -1.3854

  Dipole Moment: (a.u.)
     X:    -0.9489      Y:    -0.9261      Z:     0.8201     Total:     1.5590

  Dipole Moment: (Debye)
     X:    -2.4117      Y:    -2.3539      Z:     2.0846     Total:     3.9627


  Saving occupied orbitals to File 180.

*** tstop() called on cx1-1-4-3.cx1.hpc.ic.ac.uk at Tue Jul  5 16:29:58 2016
Module time:
	user time   =       2.10 seconds =       0.04 minutes
	system time =       0.03 seconds =       0.00 minutes
	total time  =          2 seconds =       0.03 minutes
Total time:
	user time   =       2.10 seconds =       0.04 minutes
	system time =       0.03 seconds =       0.00 minutes
	total time  =          2 seconds =       0.03 minutes


Properties will be evaluated at   0.000000,   0.000000,   0.000000 Bohr

Properties computed using the  density matrix

  Nuclear Dipole Moment: (a.u.)
     X:    -0.5247      Y:    -4.1349      Z:     2.2056

  Electronic Dipole Moment: (a.u.)
     X:    -0.4242      Y:     3.2088      Z:    -1.3854

  Dipole Moment: (a.u.)
     X:    -0.9489      Y:    -0.9261      Z:     0.8201     Total:     1.5590

  Dipole Moment: (Debye)
     X:    -2.4117      Y:    -2.3539      Z:     2.0846     Total:     3.9627

  Quadrupole Moment: (Debye Ang)
    XX:   -22.5347     YY:   -25.2191     ZZ:   -24.2504
    XY:    -3.0547     XZ:    -0.0333     YZ:     1.2075

  Traceless Quadrupole Moment: (Debye Ang)
    XX:     1.4667     YY:    -1.2177     ZZ:    -0.2490
    XY:    -3.0547     XZ:    -0.0333     YZ:     1.2075

  Mulliken Charges: (a.u.)
   Center  Symbol    Alpha    Beta     Spin     Total
       1     H     0.42905  0.42905  0.00000  0.14190
       2     C     2.75005  2.75005  0.00000  0.49990
       3     N     3.87793  3.87793  0.00000 -0.75587
       4     O     4.27258  4.27258  0.00000 -0.54515
       5     C     3.13937  3.13937  0.00000 -0.27875
       6     H     0.30896  0.30896  0.00000  0.38208
       7     H     0.39386  0.39386  0.00000  0.21228
       8     H     0.41498  0.41498  0.00000  0.17004
       9     H     0.41322  0.41322  0.00000  0.17356

   Total alpha = 16.00000, Total beta = 16.00000, Total charge = -0.00000


*** PSI4 exiting successfully. Buy a developer a beer!
