    -----------------------------------------------------------------------
          Psi4: An Open-Source Ab Initio Electronic Structure Package
                              Psi4 (no tag) Driver

                          Git: Rev {detached?}  

    J. M. Turney, A. C. Simmonett, R. M. Parrish, E. G. Hohenstein,
    F. A. Evangelista, J. T. Fermann, B. J. Mintz, L. A. Burns, J. J. Wilke,
    M. L. Abrams, N. J. Russ, M. L. Leininger, C. L. Janssen, E. T. Seidl,
    W. D. Allen, H. F. Schaefer, R. A. King, E. F. Valeev, C. D. Sherrill,
    and T. D. Crawford, WIREs Comput. Mol. Sci. 2, 556-565 (2012)
    (doi: 10.1002/wcms.93)

                         Additional Contributions by
    A. E. DePrince, M. Saitow, U. Bozkaya, A. Yu. Sokolov
    -----------------------------------------------------------------------


    Psi4 started on: Tue Jul  5 16:35:21 2016

    Process ID:  24543
    PSI4DATADIR: /export131/home/mjharvey/miniconda3/share
    Memory level set to 256.000 MB

  ==> Input File <==

--------------------------------------------------------------------------
set {
	reference rhf
	basis 6-31G*
}


set_num_threads( 1 )
memory 2 gb

molecule MOL {
0 1

O	 1.066834	 -2.032293	 1.712165
C	 0.275803	 -1.645901	 0.914452
C	 -1.147444	 -2.120194	 0.804999
O	 0.550821	 -0.724572	 0.000672
H	 -1.823175	 -1.281819	 0.928282
H	 -1.339790	 -2.865528	 1.562212
H	 -1.318951	 -2.538157	 -0.180127
C	 1.050391	 -1.183106	 -1.242894
H	 1.073250	 -0.377845	 -1.962886
H	 0.370693	 -1.955645	 -1.566843
H	 2.046628	 -1.584785	 -1.126666

	symmetry c1
}
set optking {
	frozen_dihedral = ("
		2 4 8 9
	")
}

ee = energy('scf')
oeprop('DIPOLE', 'QUADRUPOLE', 'MULLIKEN_CHARGES')
f=open( 'psi4out.xyz', 'w' )
f.write( "11  " )
f.write( str(ee) + "\n" )
f.write( MOL.save_string_xyz() )
f.close()
--------------------------------------------------------------------------

  Memory set to   2.000 GiB by Python script.

*** tstart() called on cx1-1-4-3.cx1.hpc.ic.ac.uk
*** at Tue Jul  5 16:35:21 2016


         ---------------------------------------------------------
                                   SCF
            by Justin Turney, Rob Parrish, and Andy Simmonett
                              RHF Reference
                        1 Threads,   2000 MiB Core
         ---------------------------------------------------------

  ==> Geometry <==

    Molecular point group: c1
    Full point group: C1

    Geometry (in Angstrom), charge = 0, multiplicity = 1:

       Center              X                  Y                   Z               Mass       
    ------------   -----------------  -----------------  -----------------  -----------------
           O          0.701878210324    -0.490181267426     1.296817654208    15.994914619560
           C         -0.089152789676    -0.103789267426     0.499104654208    12.000000000000
           C         -1.512399789676    -0.578082267426     0.389651654208    12.000000000000
           O          0.185865210324     0.817539732574    -0.414675345792    15.994914619560
           H         -2.188130789676     0.260292732574     0.512934654208     1.007825032070
           H         -1.704745789676    -1.323416267426     1.146864654208     1.007825032070
           H         -1.683906789676    -0.996045267426    -0.595474345792     1.007825032070
           C          0.685435210324     0.359005732574    -1.658241345792    12.000000000000
           H          0.708294210324     1.164266732574    -2.378233345792     1.007825032070
           H          0.005737210324    -0.413533267426    -1.982190345792     1.007825032070
           H          1.681672210324    -0.042673267426    -1.542013345792     1.007825032070

  Running in c1 symmetry.

  Rotational constants: A =      0.27968  B =      0.15002  C =      0.11191 [cm^-1]
  Rotational constants: A =   8384.54355  B =   4497.44500  C =   3355.11040 [MHz]
  Nuclear repulsion =  183.345206572322724

  Charge       = 0
  Multiplicity = 1
  Electrons    = 40
  Nalpha       = 20
  Nbeta        = 20

  ==> Algorithm <==

  SCF Algorithm Type is DF.
  DIIS enabled.
  MOM disabled.
  Fractional occupation disabled.
  Guess Type is CORE.
  Energy threshold   = 1.00e-06
  Density threshold  = 1.00e-06
  Integral threshold = 0.00e+00

  ==> Primary Basis <==

  Basis Set: 6-31G*
    Number of shells: 42
    Number of basis function: 87
    Number of Cartesian functions: 87
    Spherical Harmonics?: false
    Max angular momentum: 2

  ==> Pre-Iterations <==

   -------------------------------------------------------
    Irrep   Nso     Nmo     Nalpha   Nbeta   Ndocc  Nsocc
   -------------------------------------------------------
     A         87      87       0       0       0       0
   -------------------------------------------------------
    Total      87      87      20      20      20       0
   -------------------------------------------------------

 OEINTS: Overlap, kinetic, potential, dipole, and quadrupole integrals
         stored in file 35.

  ==> Integral Setup <==

  ==> DFJK: Density-Fitted J/K Matrices <==

    J tasked:                  Yes
    K tasked:                  Yes
    wK tasked:                  No
    OpenMP threads:              1
    Integrals threads:           1
    Memory (MB):              1430
    Algorithm:                Core
    Integral Cache:           NONE
    Schwarz Cutoff:          1E-12
    Fitting Condition:       1E-12

   => Auxiliary Basis Set <=

  Basis Set: 
    Number of shells: 174
    Number of basis function: 555
    Number of Cartesian functions: 555
    Spherical Harmonics?: false
    Max angular momentum: 3

  Minimum eigenvalue in the overlap matrix is 3.9951983362E-03.
  Using Symmetric Orthogonalization.
  SCF Guess: Core (One-Electron) Hamiltonian.

  ==> Iterations <==

                           Total Energy        Delta E     RMS |[F,P]|

   @DF-RHF iter   1:  -212.13668883328270   -2.12137e+02   8.83811e-02 
   @DF-RHF iter   2:  -206.81634019333646    5.32035e+00   6.20681e-02 DIIS
   @DF-RHF iter   3:  -231.73332499460085   -2.49170e+01   7.21127e-02 DIIS
   @DF-RHF iter   4:  -257.00711900481815   -2.52738e+01   4.22597e-02 DIIS
   @DF-RHF iter   5:  -264.16055446858229   -7.15344e+00   2.30391e-02 DIIS
   @DF-RHF iter   6:  -266.07817861994647   -1.91762e+00   1.23335e-02 DIIS
   @DF-RHF iter   7:  -266.71311019258530   -6.34932e-01   4.37087e-03 DIIS
   @DF-RHF iter   8:  -266.80201213430496   -8.89019e-02   1.39769e-03 DIIS
   @DF-RHF iter   9:  -266.81031039532934   -8.29826e-03   6.43967e-04 DIIS
   @DF-RHF iter  10:  -266.81242071606653   -2.11032e-03   1.86652e-04 DIIS
   @DF-RHF iter  11:  -266.81265089981218   -2.30184e-04   6.42443e-05 DIIS
   @DF-RHF iter  12:  -266.81268662602372   -3.57262e-05   3.22550e-05 DIIS
   @DF-RHF iter  13:  -266.81269287450903   -6.24849e-06   7.80529e-06 DIIS
   @DF-RHF iter  14:  -266.81269360591284   -7.31404e-07   2.61475e-06 DIIS
   @DF-RHF iter  15:  -266.81269366933452   -6.34217e-08   5.81991e-07 DIIS

  ==> Post-Iterations <==

    Orbital Energies (a.u.)
    -----------------------

    Doubly Occupied:                                                      

       1A    -20.587874     2A    -20.556524     3A    -11.378411  
       4A    -11.297858     5A    -11.236570     6A     -1.465780  
       7A     -1.369145     8A     -1.027338     9A     -0.970617  
      10A     -0.781281    11A     -0.694742    12A     -0.687184  
      13A     -0.676197    14A     -0.614689    15A     -0.589892  
      16A     -0.575214    17A     -0.546417    18A     -0.489249  
      19A     -0.461010    20A     -0.441621  

    Virtual:                                                              

      21A      0.175188    22A      0.219661    23A      0.271627  
      24A      0.294808    25A      0.304352    26A      0.314319  
      27A      0.328248    28A      0.370256    29A      0.404389  
      30A      0.498837    31A      0.564586    32A      0.710078  
      33A      0.729327    34A      0.751092    35A      0.773254  
      36A      0.809343    37A      0.827325    38A      0.855680  
      39A      0.942662    40A      0.962836    41A      1.027206  
      42A      1.088734    43A      1.109968    44A      1.120585  
      45A      1.155910    46A      1.174441    47A      1.202447  
      48A      1.234907    49A      1.255966    50A      1.290280  
      51A      1.359467    52A      1.373509    53A      1.391071  
      54A      1.427117    55A      1.624038    56A      1.658175  
      57A      1.674560    58A      1.777254    59A      1.868160  
      60A      1.963845    61A      2.031178    62A      2.066057  
      63A      2.129167    64A      2.157513    65A      2.185389  
      66A      2.247138    67A      2.315324    68A      2.384598  
      69A      2.424186    70A      2.467099    71A      2.503495  
      72A      2.576373    73A      2.630572    74A      2.650407  
      75A      2.747013    76A      2.831973    77A      2.967225  
      78A      3.161632    79A      3.225071    80A      3.281615  
      81A      3.366465    82A      3.485268    83A      4.357976  
      84A      4.538007    85A      4.603458    86A      4.697177  
      87A      4.885883  

    Final Occupation by Irrep:
              A 
    DOCC [    20 ]

  Energy converged.

  @DF-RHF Final Energy:  -266.81269366933452

   => Energetics <=

    Nuclear Repulsion Energy =            183.3452065723227236
    One-Electron Energy =                -727.4206044736096146
    Two-Electron Energy =                 277.2627042319527959
    DFT Exchange-Correlation Energy =       0.0000000000000000
    Empirical Dispersion Energy =           0.0000000000000000
    PCM Polarization Energy =               0.0000000000000000
    EFP Energy =                            0.0000000000000000
    Total Energy =                       -266.8126936693341236

    Alert: EFP and PCM quantities not currently incorporated into SCF psivars.

Properties will be evaluated at   0.000000,   0.000000,   0.000000 Bohr
  ==> Properties <==


Properties computed using the SCF density matrix

  Nuclear Dipole Moment: (a.u.)
     X:    -2.9779      Y:    -1.2651      Z:    -4.5313

  Electronic Dipole Moment: (a.u.)
     X:     2.2817      Y:     1.1237      Z:     3.3179

  Dipole Moment: (a.u.)
     X:    -0.6962      Y:    -0.1413      Z:    -1.2134     Total:     1.4061

  Dipole Moment: (Debye)
     X:    -1.7696      Y:    -0.3593      Z:    -3.0843     Total:     3.5740


  Saving occupied orbitals to File 180.

*** tstop() called on cx1-1-4-3.cx1.hpc.ic.ac.uk at Tue Jul  5 16:35:26 2016
Module time:
	user time   =       3.99 seconds =       0.07 minutes
	system time =       0.02 seconds =       0.00 minutes
	total time  =          5 seconds =       0.08 minutes
Total time:
	user time   =       3.99 seconds =       0.07 minutes
	system time =       0.02 seconds =       0.00 minutes
	total time  =          5 seconds =       0.08 minutes


Properties will be evaluated at   0.000000,   0.000000,   0.000000 Bohr

Properties computed using the  density matrix

  Nuclear Dipole Moment: (a.u.)
     X:    -2.9779      Y:    -1.2651      Z:    -4.5313

  Electronic Dipole Moment: (a.u.)
     X:     2.2817      Y:     1.1237      Z:     3.3179

  Dipole Moment: (a.u.)
     X:    -0.6962      Y:    -0.1413      Z:    -1.2134     Total:     1.4061

  Dipole Moment: (Debye)
     X:    -1.7696      Y:    -0.3593      Z:    -3.0843     Total:     3.5740

  Quadrupole Moment: (Debye Ang)
    XX:   -29.2468     YY:   -31.3000     ZZ:   -29.2485
    XY:     1.0936     XZ:    -4.2601     YZ:     1.0570

  Traceless Quadrupole Moment: (Debye Ang)
    XX:     0.6850     YY:    -1.3683     ZZ:     0.6833
    XY:     1.0936     XZ:    -4.2601     YZ:     1.0570

  Mulliken Charges: (a.u.)
   Center  Symbol    Alpha    Beta     Spin     Total
       1     O     4.25373  4.25373  0.00000 -0.50746
       2     C     2.63293  2.63293  0.00000  0.73413
       3     C     3.28619  3.28619  0.00000 -0.57238
       4     O     4.30342  4.30342  0.00000 -0.60684
       5     H     0.39769  0.39769  0.00000  0.20462
       6     H     0.39767  0.39767  0.00000  0.20466
       7     H     0.40750  0.40750  0.00000  0.18501
       8     C     3.09040  3.09040  0.00000 -0.18080
       9     H     0.40103  0.40103  0.00000  0.19794
      10     H     0.42337  0.42337  0.00000  0.15327
      11     H     0.40608  0.40608  0.00000  0.18785

   Total alpha = 20.00000, Total beta = 20.00000, Total charge = -0.00000


*** PSI4 exiting successfully. Buy a developer a beer!
