
    -----------------------------------------------------------------------
          Psi4: An Open-Source Ab Initio Electronic Structure Package
                               Psi4 1.1 release

                         Git: Rev {HEAD} add49b9 


    R. M. Parrish, L. A. Burns, D. G. A. Smith, A. C. Simmonett,
    A. E. DePrince III, E. G. Hohenstein, U. Bozkaya, A. Yu. Sokolov,
    R. Di Remigio, R. M. Richard, J. F. Gonthier, A. M. James,
    H. R. McAlexander, A. Kumar, M. Saitow, X. Wang, B. P. Pritchard,
    P. Verma, H. F. Schaefer III, K. Patkowski, R. A. King, E. F. Valeev,
    F. A. Evangelista, J. M. Turney, T. D. Crawford, and C. D. Sherrill,
    J. Chem. Theory Comput. in press (2017).
    (doi: 10.1021/acs.jctc.7b00174)

    -----------------------------------------------------------------------


    Psi4 started on: Friday, 11 August 2017 01:53PM

    Process ID:   5086
    PSIDATADIR: /home/raimis/opt/miniconda3/envs/htmd/share/psi4
    Memory:     500.0 MiB
    Threads:    1
    
  ==> Input File <==

--------------------------------------------------------------------------
set {
	reference rks
	basis cc-pvdz
}


set_num_threads( 8 )
memory 2 gb

molecule MOL {
0 1

O	 1.014300	 -0.002300	 0.060500
O	 2.462400	 -0.107500	 -0.002400
H	 0.979857	 0.955370	 0.246730
H	 2.655500	 0.713700	 0.488700

	symmetry c1
}
set optking { dynamic_level = 1 }
set optking {
	frozen_dihedral = ("
		3 1 2 4
	")
}

ee,wfn = energy('b3lyp-d3', return_wfn=True)
oeprop( wfn, 'DIPOLE', 'QUADRUPOLE', 'MULLIKEN_CHARGES')
f=open( 'psi4out.xyz', 'w' )
f.write( "4  " )
f.write( str(ee) + "\n" )
f.write( MOL.save_string_xyz() )
f.close()
--------------------------------------------------------------------------
  Threads set to 8 by Python driver.

  Memory set to   1.863 GiB by Python driver.

*** tstart() called on computer03
*** at Fri Aug 11 13:53:24 2017

   => Loading Basis Set <=

    Name: CC-PVDZ
    Role: ORBITAL
    Keyword: BASIS
    atoms 1-2 entry O          line   190 file /home/raimis/opt/miniconda3/envs/htmd/share/psi4/basis/cc-pvdz.gbs 
    atoms 3-4 entry H          line    20 file /home/raimis/opt/miniconda3/envs/htmd/share/psi4/basis/cc-pvdz.gbs 


         ---------------------------------------------------------
                                   SCF
            by Justin Turney, Rob Parrish, and Andy Simmonett
                              RKS Reference
                        8 Threads,   1907 MiB Core
         ---------------------------------------------------------

  ==> Geometry <==

    Molecular point group: c1
    Full point group: C1

    Geometry (in Angstrom), charge = 0, multiplicity = 1:

       Center              X                  Y                   Z               Mass       
    ------------   -----------------  -----------------  -----------------  -----------------
           O         -0.728752139167    -0.000120613017     0.011375878330    15.994914619560
           O          0.719347860833    -0.105320613017    -0.051524121670    15.994914619560
           H         -0.763195139167     0.957549386983     0.197605878330     1.007825032070
           H          0.912447860833     0.715879386983     0.439575878330     1.007825032070

  Running in c1 symmetry.

  Rotational constants: A =      9.45895  B =      0.91794  C =      0.84114 [cm^-1]
  Rotational constants: A = 283572.09593  B =  27519.23077  C =  25216.85489 [MHz]
  Nuclear repulsion =   36.885820526283020

  Charge       = 0
  Multiplicity = 1
  Electrons    = 18
  Nalpha       = 9
  Nbeta        = 9

  ==> Algorithm <==

  SCF Algorithm Type is DF.
  DIIS enabled.
  MOM disabled.
  Fractional occupation disabled.
  Guess Type is SAD.
  Energy threshold   = 1.00e-06
  Density threshold  = 1.00e-06
  Integral threshold = 0.00e+00

  ==> Primary Basis <==

  Basis Set: CC-PVDZ
    Blend: CC-PVDZ
    Number of shells: 18
    Number of basis function: 38
    Number of Cartesian functions: 40
    Spherical Harmonics?: true
    Max angular momentum: 2

  ==> DFT Potential <==

   => B3LYP Composite Functional <= 

    B3LYP Hybrid-GGA Exchange-Correlation Functional (VWN1-RPA)

    P.J. Stephens et. al., J. Phys. Chem., 98, 11623-11627, 1994

    Points   =           5000
    Deriv    =              1
    GGA      =           TRUE
    Meta     =          FALSE

    X_LRC        =          FALSE
    X_Hybrid     =           TRUE
    X_Alpha      =   2.000000E-01
    X_Omega      =   0.000000E+00
    C_LRC        =          FALSE
    C_Hybrid     =          FALSE
    C_Alpha      =   0.000000E+00
    C_Omega      =   0.000000E+00

   => Exchange Functionals <=

    0.8000    B3_X
    0.2000      HF 

   => Correlation Functionals <=

    0.1900 VWN3RPA_C
    0.8100   LYP_C

   => Molecular Quadrature <=

    Radial Scheme    =       TREUTLER
    Pruning Scheme   =           FLAT
    Nuclear Scheme   =       TREUTLER

    BS radius alpha  =              1
    Pruning alpha    =              1
    Radial Points    =             75
    Spherical Points =            302
    Total Points     =          88272
    Total Blocks     =             87
    Max Points       =           4724
    Max Functions    =             38

   => -D3ZERO: Empirical Dispersion <=

    Grimme's -D3 (zero-damping) Dispersion Correction
    Grimme S.; Antony J.; Ehrlich S.; Krieg H. (2010), J. Chem. Phys., 132: 154104

        S6 =   1.000000E+00
        S8 =   1.703000E+00
       SR6 =   1.261000E+00
    ALPHA6 =   1.400000E+01

   => Loading Basis Set <=

    Name: (CC-PVDZ AUX)
    Role: JKFIT
    Keyword: DF_BASIS_SCF
    atoms 1-2 entry O          line   220 file /home/raimis/opt/miniconda3/envs/htmd/share/psi4/basis/cc-pvdz-jkfit.gbs 
    atoms 3-4 entry H          line    50 file /home/raimis/opt/miniconda3/envs/htmd/share/psi4/basis/cc-pvdz-jkfit.gbs 

  ==> Pre-Iterations <==

   -------------------------------------------------------
    Irrep   Nso     Nmo     Nalpha   Nbeta   Ndocc  Nsocc
   -------------------------------------------------------
     A         38      38       0       0       0       0
   -------------------------------------------------------
    Total      38      38       9       9       9       0
   -------------------------------------------------------

  ==> Integral Setup <==

  ==> DFJK: Density-Fitted J/K Matrices <==

    J tasked:                  Yes
    K tasked:                  Yes
    wK tasked:                  No
    OpenMP threads:              8
    Integrals threads:           8
    Memory (MB):              1430
    Algorithm:                Core
    Integral Cache:           NONE
    Schwarz Cutoff:          1E-12
    Fitting Condition:       1E-12

   => Auxiliary Basis Set <=

  Basis Set: (CC-PVDZ AUX)
    Blend: CC-PVDZ-JKFIT
    Number of shells: 66
    Number of basis function: 186
    Number of Cartesian functions: 212
    Spherical Harmonics?: true
    Max angular momentum: 3

  Minimum eigenvalue in the overlap matrix is 2.3912942736E-02.
  Using Symmetric Orthogonalization.

  SCF Guess: Superposition of Atomic Densities via on-the-fly atomic UHF.

  ==> Iterations <==

                           Total Energy        Delta E     RMS |[F,P]|

   @DF-RKS iter   0:  -151.68808590024091   -1.51688e+02   9.76299e-02 
   @DF-RKS iter   1:  -151.47681496312458    2.11271e-01   1.41026e-02 
   @DF-RKS iter   2:  -151.46825542224545    8.55954e-03   1.96322e-02 DIIS
   @DF-RKS iter   3:  -151.53472355638306   -6.64681e-02   1.81470e-03 DIIS
   @DF-RKS iter   4:  -151.53509704589740   -3.73490e-04   3.34558e-04 DIIS
   @DF-RKS iter   5:  -151.53509464025430    2.40564e-06   3.65813e-04 DIIS
   @DF-RKS iter   6:  -151.53511677377352   -2.21335e-05   9.10116e-06 DIIS
   @DF-RKS iter   7:  -151.53511679021130   -1.64378e-08   2.10582e-06 DIIS
   @DF-RKS iter   8:  -151.53511679084826   -6.36959e-10   1.41646e-07 DIIS

  ==> Post-Iterations <==

    Orbital Energies (a.u.)
    -----------------------

    Doubly Occupied:                                                      

       1A    -19.191996     2A    -19.191966     3A     -1.121863  
       4A     -0.887495     5A     -0.560440     6A     -0.428223  
       7A     -0.411079     8A     -0.365357     9A     -0.249276  

    Virtual:                                                              

      10A      0.010407    11A      0.020501    12A      0.132467  
      13A      0.547859    14A      0.573190    15A      0.862634  
      16A      0.864187    17A      0.919220    18A      0.929578  
      19A      0.993600    20A      1.057029    21A      1.157024  
      22A      1.250549    23A      1.322597    24A      1.537930  
      25A      1.627850    26A      1.796844    27A      2.014239  
      28A      2.102468    29A      2.312846    30A      2.375246  
      31A      2.628372    32A      2.862377    33A      2.916253  
      34A      2.995921    35A      3.185773    36A      3.483052  
      37A      3.550904    38A      3.822937  

    Final Occupation by Irrep:
              A 
    DOCC [     9 ]

  Energy converged.

  @DF-RKS Final Energy:  -151.53511679084826

   => Energetics <=

    Nuclear Repulsion Energy =             36.8858205262830197
    One-Electron Energy =                -281.6417985689406578
    Two-Electron Energy =                 107.6840575622934750
    DFT Exchange-Correlation Energy =     -14.4630169104841233
    Empirical Dispersion Energy =          -0.0001794000000000
    PCM Polarization Energy =               0.0000000000000000
    EFP Energy =                            0.0000000000000000
    Total Energy =                       -151.5351167908482921



Properties will be evaluated at   0.000000,   0.000000,   0.000000 Bohr

Properties computed using the SCF density matrix

  Nuclear Dipole Moment: (a.u.)
     X:     0.1399      Y:     1.5683      Z:     0.5971

  Electronic Dipole Moment: (a.u.)
     X:    -0.0388      Y:    -0.4346      Z:    -0.1655

  Dipole Moment: (a.u.)
     X:     0.1011      Y:     1.1337      Z:     0.4317     Total:     1.2173

  Dipole Moment: (Debye)
     X:     0.2570      Y:     2.8815      Z:     1.0972     Total:     3.0940


*** tstop() called on computer03 at Fri Aug 11 13:53:28 2017
Module time:
	user time   =      17.65 seconds =       0.29 minutes
	system time =       0.57 seconds =       0.01 minutes
	total time  =          4 seconds =       0.07 minutes
Total time:
	user time   =      17.65 seconds =       0.29 minutes
	system time =       0.57 seconds =       0.01 minutes
	total time  =          4 seconds =       0.07 minutes


Properties will be evaluated at   0.000000,   0.000000,   0.000000 Bohr

Properties computed using the  density matrix

  Nuclear Dipole Moment: (a.u.)
     X:     0.1399      Y:     1.5683      Z:     0.5971

  Electronic Dipole Moment: (a.u.)
     X:    -0.0388      Y:    -0.4346      Z:    -0.1655

  Dipole Moment: (a.u.)
     X:     0.1011      Y:     1.1337      Z:     0.4317     Total:     1.2173

  Dipole Moment: (Debye)
     X:     0.2570      Y:     2.8815      Z:     1.0972     Total:     3.0940

  Quadrupole Moment: (Debye Ang)
    XX:   -11.2995     YY:    -8.9654     ZZ:   -11.7599
    XY:     0.0369     XZ:     0.5564     YZ:     1.1879

  Traceless Quadrupole Moment: (Debye Ang)
    XX:    -0.6245     YY:     1.7095     ZZ:    -1.0850
    XY:     0.0369     XZ:     0.5564     YZ:     1.1879

  Mulliken Charges: (a.u.)
   Center  Symbol    Alpha    Beta     Spin     Total
       1     O     4.07875  4.07875  0.00000 -0.15749
       2     O     4.07873  4.07873  0.00000 -0.15745
       3     H     0.42125  0.42125  0.00000  0.15749
       4     H     0.42127  0.42127  0.00000  0.15746

   Total alpha =  9.00000, Total beta =  9.00000, Total charge =  0.00000


*** Psi4 exiting successfully. Buy a developer a beer!
