    -----------------------------------------------------------------------
          Psi4: An Open-Source Ab Initio Electronic Structure Package
                              Psi4 (no tag) Driver

                          Git: Rev {detached?}  

    J. M. Turney, A. C. Simmonett, R. M. Parrish, E. G. Hohenstein,
    F. A. Evangelista, J. T. Fermann, B. J. Mintz, L. A. Burns, J. J. Wilke,
    M. L. Abrams, N. J. Russ, M. L. Leininger, C. L. Janssen, E. T. Seidl,
    W. D. Allen, H. F. Schaefer, R. A. King, E. F. Valeev, C. D. Sherrill,
    and T. D. Crawford, WIREs Comput. Mol. Sci. 2, 556-565 (2012)
    (doi: 10.1002/wcms.93)

                         Additional Contributions by
    A. E. DePrince, M. Saitow, U. Bozkaya, A. Yu. Sokolov
    -----------------------------------------------------------------------


    Psi4 started on: Tue Jul  5 16:52:25 2016

    Process ID:  14620
    PSI4DATADIR: /export131/home/mjharvey/miniconda3/share
    Memory level set to 256.000 MB

  ==> Input File <==

--------------------------------------------------------------------------
set {
	reference rhf
	basis 6-31G*
}


set_num_threads( 1 )
memory 2 gb

molecule MOL {
0 1

H	 5.268524	 0.192471	 1.070992
C	 4.673736	 -0.214914	 0.259335
C	 3.185378	 -0.203514	 0.605509
H	 4.871837	 0.380453	 -0.627026
H	 5.025590	 -1.224632	 0.065769
C	 2.317601	 -0.778379	 -0.516234
H	 2.874655	 0.814325	 0.817774
H	 3.023650	 -0.778480	 1.515976
C	 1.361848	 -1.878078	 -0.053130
H	 1.742427	 0.017813	 -0.975468
H	 2.962834	 -1.189593	 -1.289292
C	 0.206148	 -1.383893	 0.804412
H	 0.918169	 -2.367763	 -0.918652
H	 1.897583	 -2.658145	 0.483211
C	 -0.552492	 -2.414721	 1.622075
O	 -0.110264	 -0.232424	 0.824644
C	 -1.255440	 -3.482922	 0.771209
H	 -1.277583	 -1.874467	 2.218802
H	 0.145784	 -2.898440	 2.302598
C	 -2.088763	 -4.445605	 1.619398
H	 -1.900284	 -2.994537	 0.043699
H	 -0.522296	 -4.051633	 0.205047
C	 -2.793385	 -5.513481	 0.783902
H	 -2.827489	 -3.880140	 2.182066
H	 -1.445894	 -4.925985	 2.353802
H	 -3.468351	 -5.063813	 0.061445
H	 -2.077532	 -6.119091	 0.235356
H	 -3.376959	 -6.179241	 1.411662

	symmetry c1
}
set optking {
	frozen_dihedral = ("
		12 15 17 21,
		16 12 15 17
	")
}

ee = energy('scf')
oeprop('DIPOLE', 'QUADRUPOLE', 'MULLIKEN_CHARGES')
f=open( 'psi4out.xyz', 'w' )
f.write( "28  " )
f.write( str(ee) + "\n" )
f.write( MOL.save_string_xyz() )
f.close()
--------------------------------------------------------------------------

  Memory set to   2.000 GiB by Python script.

*** tstart() called on cx1-3-4-4.cx1.hpc.ic.ac.uk
*** at Tue Jul  5 16:52:26 2016


         ---------------------------------------------------------
                                   SCF
            by Justin Turney, Rob Parrish, and Andy Simmonett
                              RHF Reference
                        1 Threads,   2000 MiB Core
         ---------------------------------------------------------

  ==> Geometry <==

    Molecular point group: c1
    Full point group: C1

    Geometry (in Angstrom), charge = 0, multiplicity = 1:

       Center              X                  Y                   Z               Mass       
    ------------   -----------------  -----------------  -----------------  -----------------
           H          4.770273751236     2.251454198873     0.401259838799     1.007825032070
           C          4.175485751236     1.844069198873    -0.410397161201    12.000000000000
           C          2.687127751236     1.855469198873    -0.064223161201    12.000000000000
           H          4.373586751236     2.439436198873    -1.296758161201     1.007825032070
           H          4.527339751236     0.834351198873    -0.603963161201     1.007825032070
           C          1.819350751236     1.280604198873    -1.185966161201    12.000000000000
           H          2.376404751236     2.873308198873     0.148041838799     1.007825032070
           H          2.525399751236     1.280503198873     0.846243838799     1.007825032070
           C          0.863597751236     0.180905198873    -0.722862161201    12.000000000000
           H          1.244176751236     2.076796198873    -1.645200161201     1.007825032070
           H          2.464583751236     0.869390198873    -1.959024161201     1.007825032070
           C         -0.292102248764     0.675090198873     0.134679838799    12.000000000000
           H          0.419918751236    -0.308779801127    -1.588384161201     1.007825032070
           H          1.399332751236    -0.599161801127    -0.186521161201     1.007825032070
           C         -1.050742248764    -0.355737801127     0.952342838799    12.000000000000
           O         -0.608514248764     1.826559198873     0.154911838799    15.994914619560
           C         -1.753690248764    -1.423938801127     0.101476838799    12.000000000000
           H         -1.775833248764     0.184516198873     1.549069838799     1.007825032070
           H         -0.352466248764    -0.839456801127     1.632865838799     1.007825032070
           C         -2.587013248764    -2.386621801127     0.949665838799    12.000000000000
           H         -2.398534248764    -0.935553801127    -0.626033161201     1.007825032070
           H         -1.020546248764    -1.992649801127    -0.464685161201     1.007825032070
           C         -3.291635248764    -3.454497801127     0.114169838799    12.000000000000
           H         -3.325739248764    -1.821156801127     1.512333838799     1.007825032070
           H         -1.944144248764    -2.867001801127     1.684069838799     1.007825032070
           H         -3.966601248764    -3.004829801127    -0.608287161201     1.007825032070
           H         -2.575782248764    -4.060107801127    -0.434376161201     1.007825032070
           H         -3.875209248764    -4.120257801127     0.741929838799     1.007825032070

  Running in c1 symmetry.

  Rotational constants: A =      0.10825  B =      0.01395  C =      0.01327 [cm^-1]
  Rotational constants: A =   3245.10722  B =    418.17704  C =    397.78542 [MHz]
  Nuclear repulsion =  531.495743320914698

  Charge       = 0
  Multiplicity = 1
  Electrons    = 80
  Nalpha       = 40
  Nbeta        = 40

  ==> Algorithm <==

  SCF Algorithm Type is DF.
  DIIS enabled.
  MOM disabled.
  Fractional occupation disabled.
  Guess Type is CORE.
  Energy threshold   = 1.00e-06
  Density threshold  = 1.00e-06
  Integral threshold = 0.00e+00

  ==> Primary Basis <==

  Basis Set: 6-31G*
    Number of shells: 96
    Number of basis function: 186
    Number of Cartesian functions: 186
    Spherical Harmonics?: false
    Max angular momentum: 2

  ==> Pre-Iterations <==

   -------------------------------------------------------
    Irrep   Nso     Nmo     Nalpha   Nbeta   Ndocc  Nsocc
   -------------------------------------------------------
     A        186     186       0       0       0       0
   -------------------------------------------------------
    Total     186     186      40      40      40       0
   -------------------------------------------------------

 OEINTS: Overlap, kinetic, potential, dipole, and quadrupole integrals
         stored in file 35.

  ==> Integral Setup <==

  ==> DFJK: Density-Fitted J/K Matrices <==

    J tasked:                  Yes
    K tasked:                  Yes
    wK tasked:                  No
    OpenMP threads:              1
    Integrals threads:           1
    Memory (MB):              1430
    Algorithm:                Core
    Integral Cache:           NONE
    Schwarz Cutoff:          1E-12
    Fitting Condition:       1E-12

   => Auxiliary Basis Set <=

  Basis Set: 
    Number of shells: 402
    Number of basis function: 1260
    Number of Cartesian functions: 1260
    Spherical Harmonics?: false
    Max angular momentum: 3

  Minimum eigenvalue in the overlap matrix is 3.0015167556E-03.
  Using Symmetric Orthogonalization.
  SCF Guess: Core (One-Electron) Hamiltonian.

  ==> Iterations <==

                           Total Energy        Delta E     RMS |[F,P]|

   @DF-RHF iter   1:  -241.36115193011392   -2.41361e+02   6.65798e-02 
   @DF-RHF iter   2:  -129.75068914398503    1.11610e+02   7.65693e-02 DIIS
   @DF-RHF iter   3:  -384.22467826212937   -2.54474e+02   2.86987e-02 DIIS
   @DF-RHF iter   4:  -300.90411761768200    8.33206e+01   5.11805e-02 DIIS
   @DF-RHF iter   5:  -404.75970850901876   -1.03856e+02   2.56375e-02 DIIS
   @DF-RHF iter   6:  -425.33394290122942   -2.05742e+01   6.49146e-03 DIIS
   @DF-RHF iter   7:  -426.05854594223160   -7.24603e-01   2.39426e-03 DIIS
   @DF-RHF iter   8:  -426.15724510489201   -9.86992e-02   4.10875e-04 DIIS
   @DF-RHF iter   9:  -426.16290459058064   -5.65949e-03   1.38672e-04 DIIS
   @DF-RHF iter  10:  -426.16352448243310   -6.19892e-04   5.17623e-05 DIIS
   @DF-RHF iter  11:  -426.16364195221740   -1.17470e-04   2.62262e-05 DIIS
   @DF-RHF iter  12:  -426.16366111904938   -1.91668e-05   8.61661e-06 DIIS
   @DF-RHF iter  13:  -426.16366566298620   -4.54394e-06   4.37062e-06 DIIS
   @DF-RHF iter  14:  -426.16366637778708   -7.14801e-07   1.21138e-06 DIIS
   @DF-RHF iter  15:  -426.16366648254268   -1.04756e-07   5.54456e-07 DIIS

  ==> Post-Iterations <==

    Orbital Energies (a.u.)
    -----------------------

    Doubly Occupied:                                                      

       1A    -20.548062     2A    -11.321727     3A    -11.232334  
       4A    -11.229926     5A    -11.228711     6A    -11.226050  
       7A    -11.216297     8A    -11.215131     9A    -11.212189  
      10A    -11.208104    11A     -1.392830    12A     -1.095254  
      13A     -1.078127    14A     -1.022632    15A     -0.990747  
      16A     -0.907753    17A     -0.874512    18A     -0.809238  
      19A     -0.800110    20A     -0.722105    21A     -0.666359  
      22A     -0.651759    23A     -0.637042    24A     -0.620142  
      25A     -0.602439    26A     -0.589187    27A     -0.580066  
      28A     -0.575816    29A     -0.541492    30A     -0.535642  
      31A     -0.519067    32A     -0.505142    33A     -0.503968  
      34A     -0.484705    35A     -0.479592    36A     -0.475213  
      37A     -0.471001    38A     -0.460731    39A     -0.455805  
      40A     -0.392359  

    Virtual:                                                              

      41A      0.168852    42A      0.218320    43A      0.233117  
      44A      0.252096    45A      0.266061    46A      0.271082  
      47A      0.287307    48A      0.291795    49A      0.295747  
      50A      0.312388    51A      0.314915    52A      0.323866  
      53A      0.328889    54A      0.333062    55A      0.337004  
      56A      0.343553    57A      0.348222    58A      0.351694  
      59A      0.370659    60A      0.385741    61A      0.408651  
      62A      0.434953    63A      0.438667    64A      0.448542  
      65A      0.450815    66A      0.469691    67A      0.525406  
      68A      0.536977    69A      0.696441    70A      0.704912  
      71A      0.725429    72A      0.736681    73A      0.739504  
      74A      0.744152    75A      0.768177    76A      0.785553  
      77A      0.803896    78A      0.824837    79A      0.833592  
      80A      0.855043    81A      0.859750    82A      0.898237  
      83A      0.927241    84A      0.938451    85A      0.949567  
      86A      0.976058    87A      0.989153    88A      1.015381  
      89A      1.022346    90A      1.050541    91A      1.084051  
      92A      1.092716    93A      1.113183    94A      1.115241  
      95A      1.117783    96A      1.130866    97A      1.144761  
      98A      1.154307    99A      1.162461   100A      1.166116  
     101A      1.173515   102A      1.181855   103A      1.185203  
     104A      1.200024   105A      1.206468   106A      1.208959  
     107A      1.216162   108A      1.222790   109A      1.231780  
     110A      1.248196   111A      1.254609   112A      1.261233  
     113A      1.280474   114A      1.298815   115A      1.310922  
     116A      1.391849   117A      1.409162   118A      1.455230  
     119A      1.473805   120A      1.540697   121A      1.627346  
     122A      1.656837   123A      1.686870   124A      1.722472  
     125A      1.752269   126A      1.780777   127A      1.806613  
     128A      1.838406   129A      1.901330   130A      1.945301  
     131A      1.992650   132A      2.020341   133A      2.038967  
     134A      2.076209   135A      2.113539   136A      2.126018  
     137A      2.148165   138A      2.168554   139A      2.182008  
     140A      2.215485   141A      2.225851   142A      2.239940  
     143A      2.262120   144A      2.275154   145A      2.287355  
     146A      2.303169   147A      2.326873   148A      2.356809  
     149A      2.376522   150A      2.393449   151A      2.423227  
     152A      2.481584   153A      2.524190   154A      2.568659  
     155A      2.604621   156A      2.616737   157A      2.636835  
     158A      2.673567   159A      2.695929   160A      2.714889  
     161A      2.735340   162A      2.750456   163A      2.775709  
     164A      2.778496   165A      2.791097   166A      2.881103  
     167A      2.901813   168A      2.925941   169A      2.969820  
     170A      3.001253   171A      3.069679   172A      3.094653  
     173A      3.110209   174A      3.207729   175A      3.389650  
     176A      3.413660   177A      4.465140   178A      4.535521  
     179A      4.590412   180A      4.631991   181A      4.719423  
     182A      4.781051   183A      4.836457   184A      4.912197  
     185A      4.984640   186A      5.013138  

    Final Occupation by Irrep:
              A 
    DOCC [    40 ]

  Energy converged.

  @DF-RHF Final Energy:  -426.16366648254268

   => Energetics <=

    Nuclear Repulsion Energy =            531.4957433209146984
    One-Electron Energy =               -1631.1602699106595082
    Two-Electron Energy =                 673.5008601072015608
    DFT Exchange-Correlation Energy =       0.0000000000000000
    Empirical Dispersion Energy =           0.0000000000000000
    PCM Polarization Energy =               0.0000000000000000
    EFP Energy =                            0.0000000000000000
    Total Energy =                       -426.1636664825432490

    Alert: EFP and PCM quantities not currently incorporated into SCF psivars.

Properties will be evaluated at   0.000000,   0.000000,   0.000000 Bohr
  ==> Properties <==


Properties computed using the SCF density matrix

  Nuclear Dipole Moment: (a.u.)
     X:     2.6840      Y:    -7.2465      Z:    -0.8406

  Electronic Dipole Moment: (a.u.)
     X:    -2.4888      Y:     6.1095      Z:     0.7941

  Dipole Moment: (a.u.)
     X:     0.1952      Y:    -1.1370      Z:    -0.0465     Total:     1.1546

  Dipole Moment: (Debye)
     X:     0.4962      Y:    -2.8900      Z:    -0.1182     Total:     2.9347


  Saving occupied orbitals to File 180.

*** tstop() called on cx1-3-4-4.cx1.hpc.ic.ac.uk at Tue Jul  5 16:53:04 2016
Module time:
	user time   =      38.02 seconds =       0.63 minutes
	system time =       0.37 seconds =       0.01 minutes
	total time  =         38 seconds =       0.63 minutes
Total time:
	user time   =      38.02 seconds =       0.63 minutes
	system time =       0.37 seconds =       0.01 minutes
	total time  =         38 seconds =       0.63 minutes


Properties will be evaluated at   0.000000,   0.000000,   0.000000 Bohr

Properties computed using the  density matrix

  Nuclear Dipole Moment: (a.u.)
     X:     2.6840      Y:    -7.2465      Z:    -0.8406

  Electronic Dipole Moment: (a.u.)
     X:    -2.4888      Y:     6.1095      Z:     0.7941

  Dipole Moment: (a.u.)
     X:     0.1952      Y:    -1.1370      Z:    -0.0465     Total:     1.1546

  Dipole Moment: (Debye)
     X:     0.4962      Y:    -2.8900      Z:    -0.1182     Total:     2.9347

  Quadrupole Moment: (Debye Ang)
    XX:   -64.8158     YY:   -70.6823     ZZ:   -64.2420
    XY:     2.8684     XZ:    -0.2920     YZ:    -1.2442

  Traceless Quadrupole Moment: (Debye Ang)
    XX:     1.7642     YY:    -4.1023     ZZ:     2.3381
    XY:     2.8684     XZ:    -0.2920     YZ:    -1.2442

  Mulliken Charges: (a.u.)
   Center  Symbol    Alpha    Beta     Spin     Total
       1     H     0.41986  0.41986  0.00000  0.16029
       2     C     3.24161  3.24161  0.00000 -0.48322
       3     C     3.15312  3.15312  0.00000 -0.30624
       4     H     0.42061  0.42061  0.00000  0.15877
       5     H     0.42414  0.42414  0.00000  0.15172
       6     C     3.15238  3.15238  0.00000 -0.30477
       7     H     0.41023  0.41023  0.00000  0.17954
       8     H     0.42583  0.42583  0.00000  0.14834
       9     C     3.21351  3.21351  0.00000 -0.42702
      10     H     0.40426  0.40426  0.00000  0.19147
      11     H     0.41926  0.41926  0.00000  0.16148
      12     C     2.73135  2.73135  0.00000  0.53730
      13     H     0.40406  0.40406  0.00000  0.19188
      14     H     0.41328  0.41328  0.00000  0.17343
      15     C     3.20163  3.20163  0.00000 -0.40326
      16     O     4.26603  4.26603  0.00000 -0.53206
      17     C     3.16384  3.16384  0.00000 -0.32767
      18     H     0.39973  0.39973  0.00000  0.20055
      19     H     0.41317  0.41317  0.00000  0.17367
      20     C     3.15179  3.15179  0.00000 -0.30357
      21     H     0.41378  0.41378  0.00000  0.17244
      22     H     0.41865  0.41865  0.00000  0.16270
      23     C     3.24033  3.24033  0.00000 -0.48065
      24     H     0.41838  0.41838  0.00000  0.16325
      25     H     0.42146  0.42146  0.00000  0.15707
      26     H     0.41961  0.41961  0.00000  0.16079
      27     H     0.42121  0.42121  0.00000  0.15758
      28     H     0.41689  0.41689  0.00000  0.16623

   Total alpha = 40.00000, Total beta = 40.00000, Total charge = -0.00000


*** PSI4 exiting successfully. Buy a developer a beer!
