    -----------------------------------------------------------------------
          Psi4: An Open-Source Ab Initio Electronic Structure Package
                              Psi4 (no tag) Driver

                          Git: Rev {detached?}  

    J. M. Turney, A. C. Simmonett, R. M. Parrish, E. G. Hohenstein,
    F. A. Evangelista, J. T. Fermann, B. J. Mintz, L. A. Burns, J. J. Wilke,
    M. L. Abrams, N. J. Russ, M. L. Leininger, C. L. Janssen, E. T. Seidl,
    W. D. Allen, H. F. Schaefer, R. A. King, E. F. Valeev, C. D. Sherrill,
    and T. D. Crawford, WIREs Comput. Mol. Sci. 2, 556-565 (2012)
    (doi: 10.1002/wcms.93)

                         Additional Contributions by
    A. E. DePrince, M. Saitow, U. Bozkaya, A. Yu. Sokolov
    -----------------------------------------------------------------------


    Psi4 started on: Tue Jul  5 16:45:01 2016

    Process ID:  28411
    PSI4DATADIR: /export131/home/mjharvey/miniconda3/share
    Memory level set to 256.000 MB

  ==> Input File <==

--------------------------------------------------------------------------
set {
	reference rhf
	basis 6-31G*
}


set_num_threads( 1 )
memory 2 gb

molecule MOL {
0 1

H	 -3.650283	 0.221984	 0.000000
C	 -2.577024	 0.154109	 0.000000
C	 -1.960329	 -1.089307	 0.000000
C	 -1.811733	 1.307557	 0.000000
H	 -2.554473	 -1.985285	 0.000000
C	 -0.581547	 -1.175855	 0.000000
H	 -2.287118	 2.271701	 0.000000
C	 -0.428719	 1.219221	 0.000000
H	 -0.090826	 -2.129898	 0.000000
C	 0.198341	 -0.021559	 0.000000
H	 0.149947	 2.124040	 0.000000
C	 1.691355	 -0.173192	 0.000000
C	 2.490924	 0.410658	 1.146015
O	 2.243801	 -0.746784	 -0.891723
H	 2.342472	 1.483489	 1.215126
H	 3.537607	 0.204663	 0.974226
H	 2.189024	 -0.027398	 2.091924

	symmetry c1
}
ee = energy('scf')
oeprop('DIPOLE', 'QUADRUPOLE', 'MULLIKEN_CHARGES')
f=open( 'psi4out.xyz', 'w' )
f.write( "17  " )
f.write( str(ee) + "\n" )
f.write( MOL.save_string_xyz() )
f.close()
--------------------------------------------------------------------------

  Memory set to   2.000 GiB by Python script.

*** tstart() called on cx1-3-15-4.cx1.hpc.ic.ac.uk
*** at Tue Jul  5 16:45:01 2016


         ---------------------------------------------------------
                                   SCF
            by Justin Turney, Rob Parrish, and Andy Simmonett
                              RHF Reference
                        1 Threads,   2000 MiB Core
         ---------------------------------------------------------

  ==> Geometry <==

    Molecular point group: c1
    Full point group: C1

    Geometry (in Angstrom), charge = 0, multiplicity = 1:

       Center              X                  Y                   Z               Mass       
    ------------   -----------------  -----------------  -----------------  -----------------
           H         -3.648434934472     0.240183097832    -0.031684179675     1.007825032070
           C         -2.575175934472     0.172308097832    -0.031684179675    12.000000000000
           C         -1.958480934472    -1.071107902168    -0.031684179675    12.000000000000
           C         -1.809884934472     1.325756097832    -0.031684179675    12.000000000000
           H         -2.552624934472    -1.967085902168    -0.031684179675     1.007825032070
           C         -0.579698934472    -1.157655902168    -0.031684179675    12.000000000000
           H         -2.285269934472     2.289900097832    -0.031684179675     1.007825032070
           C         -0.426870934472     1.237420097832    -0.031684179675    12.000000000000
           H         -0.088977934472    -2.111698902168    -0.031684179675     1.007825032070
           C          0.200189065528    -0.003359902168    -0.031684179675    12.000000000000
           H          0.151795065528     2.142239097832    -0.031684179675     1.007825032070
           C          1.693203065528    -0.154992902168    -0.031684179675    12.000000000000
           C          2.492772065528     0.428857097832     1.114330820325    12.000000000000
           O          2.245649065528    -0.728584902168    -0.923407179675    15.994914619560
           H          2.344320065528     1.501688097832     1.183441820325     1.007825032070
           H          3.539455065528     0.222862097832     0.942541820325     1.007825032070
           H          2.190872065528    -0.009198902168     2.060239820325     1.007825032070

  Running in c1 symmetry.

  Rotational constants: A =      0.12498  B =      0.03824  C =      0.03264 [cm^-1]
  Rotational constants: A =   3746.87167  B =   1146.42023  C =    978.56601 [MHz]
  Nuclear repulsion =  402.470742889768474

  Charge       = 0
  Multiplicity = 1
  Electrons    = 64
  Nalpha       = 32
  Nbeta        = 32

  ==> Algorithm <==

  SCF Algorithm Type is DF.
  DIIS enabled.
  MOM disabled.
  Fractional occupation disabled.
  Guess Type is CORE.
  Energy threshold   = 1.00e-06
  Density threshold  = 1.00e-06
  Integral threshold = 0.00e+00

  ==> Primary Basis <==

  Basis Set: 6-31G*
    Number of shells: 70
    Number of basis function: 151
    Number of Cartesian functions: 151
    Spherical Harmonics?: false
    Max angular momentum: 2

  ==> Pre-Iterations <==

   -------------------------------------------------------
    Irrep   Nso     Nmo     Nalpha   Nbeta   Ndocc  Nsocc
   -------------------------------------------------------
     A        151     151       0       0       0       0
   -------------------------------------------------------
    Total     151     151      32      32      32       0
   -------------------------------------------------------

 OEINTS: Overlap, kinetic, potential, dipole, and quadrupole integrals
         stored in file 35.

  ==> Integral Setup <==

  ==> DFJK: Density-Fitted J/K Matrices <==

    J tasked:                  Yes
    K tasked:                  Yes
    wK tasked:                  No
    OpenMP threads:              1
    Integrals threads:           1
    Memory (MB):              1430
    Algorithm:                Core
    Integral Cache:           NONE
    Schwarz Cutoff:          1E-12
    Fitting Condition:       1E-12

   => Auxiliary Basis Set <=

  Basis Set: 
    Number of shells: 288
    Number of basis function: 929
    Number of Cartesian functions: 929
    Spherical Harmonics?: false
    Max angular momentum: 3

  Minimum eigenvalue in the overlap matrix is 4.3608038187E-04.
  Using Symmetric Orthogonalization.
  SCF Guess: Core (One-Electron) Hamiltonian.

  ==> Iterations <==

                           Total Energy        Delta E     RMS |[F,P]|

   @DF-RHF iter   1:  -296.25494555435108   -2.96255e+02   6.43328e-02 
   @DF-RHF iter   2:  -278.92215180147554    1.73328e+01   5.18596e-02 DIIS
   @DF-RHF iter   3:  -324.71359147847915   -4.57914e+01   5.21082e-02 DIIS
   @DF-RHF iter   4:  -373.72354830374087   -4.90100e+01   2.22440e-02 DIIS
   @DF-RHF iter   5:  -351.97431407584799    2.17492e+01   3.52820e-02 DIIS
   @DF-RHF iter   6:  -382.17872264446379   -3.02044e+01   4.55099e-03 DIIS
   @DF-RHF iter   7:  -382.39503022873038   -2.16308e-01   2.67940e-03 DIIS
   @DF-RHF iter   8:  -382.45677603877044   -6.17458e-02   8.03031e-04 DIIS
   @DF-RHF iter   9:  -382.46561482196881   -8.83878e-03   4.06575e-04 DIIS
   @DF-RHF iter  10:  -382.46812880604085   -2.51398e-03   7.23684e-05 DIIS
   @DF-RHF iter  11:  -382.46827469398403   -1.45888e-04   2.70967e-05 DIIS
   @DF-RHF iter  12:  -382.46830193858983   -2.72446e-05   1.49600e-05 DIIS
   @DF-RHF iter  13:  -382.46831092517715   -8.98659e-06   6.80812e-06 DIIS
   @DF-RHF iter  14:  -382.46831376030758   -2.83513e-06   3.32205e-06 DIIS
   @DF-RHF iter  15:  -382.46831443739273   -6.77085e-07   1.35310e-06 DIIS
   @DF-RHF iter  16:  -382.46831454737281   -1.09980e-07   4.33147e-07 DIIS

  ==> Post-Iterations <==

    Orbital Energies (a.u.)
    -----------------------

    Doubly Occupied:                                                      

       1A    -20.555114     2A    -11.333354     3A    -11.247700  
       4A    -11.246020     5A    -11.242317     6A    -11.241975  
       7A    -11.240759     8A    -11.239595     9A    -11.230714  
      10A     -1.399187    11A     -1.165525    12A     -1.049034  
      13A     -1.026447    14A     -0.997607    15A     -0.861188  
      16A     -0.836960    17A     -0.761728    18A     -0.703508  
      19A     -0.662138    20A     -0.644092    21A     -0.623547  
      22A     -0.618788    23A     -0.599640    24A     -0.590372  
      25A     -0.559136    26A     -0.523437    27A     -0.512666  
      28A     -0.504317    29A     -0.489911    30A     -0.411126  
      31A     -0.344182    32A     -0.341242  

    Virtual:                                                              

      33A      0.118657    34A      0.136392    35A      0.183364  
      36A      0.225841    37A      0.253831    38A      0.286487  
      39A      0.299739    40A      0.308607    41A      0.313318  
      42A      0.330769    43A      0.350131    44A      0.372305  
      45A      0.400887    46A      0.441078    47A      0.472181  
      48A      0.479258    49A      0.511962    50A      0.527899  
      51A      0.565260    52A      0.663613    53A      0.695072  
      54A      0.734631    55A      0.740337    56A      0.755652  
      57A      0.784530    58A      0.793338    59A      0.808289  
      60A      0.818059    61A      0.820214    62A      0.831778  
      63A      0.837052    64A      0.845333    65A      0.867453  
      66A      0.889299    67A      0.912923    68A      0.963697  
      69A      0.985151    70A      0.993057    71A      1.015992  
      72A      1.068244    73A      1.084640    74A      1.103848  
      75A      1.108988    76A      1.114312    77A      1.126138  
      78A      1.141924    79A      1.156443    80A      1.174378  
      81A      1.191355    82A      1.205153    83A      1.230665  
      84A      1.260918    85A      1.273778    86A      1.287433  
      87A      1.345727    88A      1.357648    89A      1.379408  
      90A      1.402205    91A      1.432614    92A      1.447585  
      93A      1.503834    94A      1.617423    95A      1.675224  
      96A      1.688628    97A      1.708540    98A      1.744480  
      99A      1.761229   100A      1.768220   101A      1.784075  
     102A      1.853846   103A      1.945246   104A      1.964839  
     105A      2.057104   106A      2.084019   107A      2.106612  
     108A      2.141328   109A      2.149696   110A      2.168138  
     111A      2.215764   112A      2.241838   113A      2.315256  
     114A      2.320797   115A      2.353055   116A      2.391852  
     117A      2.408582   118A      2.451730   119A      2.461120  
     120A      2.475434   121A      2.509031   122A      2.539202  
     123A      2.594629   124A      2.625306   125A      2.639848  
     126A      2.658234   127A      2.705905   128A      2.766108  
     129A      2.869190   130A      2.920048   131A      2.930313  
     132A      3.015734   133A      3.032830   134A      3.084075  
     135A      3.103188   136A      3.110786   137A      3.128602  
     138A      3.210494   139A      3.363873   140A      3.379591  
     141A      3.485732   142A      3.824736   143A      4.427501  
     144A      4.512965   145A      4.531484   146A      4.543484  
     147A      4.612693   148A      4.747358   149A      4.773915  
     150A      4.890284   151A      5.143383  

    Final Occupation by Irrep:
              A 
    DOCC [    32 ]

  Energy converged.

  @DF-RHF Final Energy:  -382.46831454737281

   => Energetics <=

    Nuclear Repulsion Energy =            402.4707428897684736
    One-Electron Energy =               -1316.2712887926022631
    Two-Electron Energy =                 531.3322313554618859
    DFT Exchange-Correlation Energy =       0.0000000000000000
    Empirical Dispersion Energy =           0.0000000000000000
    PCM Polarization Energy =               0.0000000000000000
    EFP Energy =                            0.0000000000000000
    Total Energy =                       -382.4683145473719605

    Alert: EFP and PCM quantities not currently incorporated into SCF psivars.

Properties will be evaluated at   0.000000,   0.000000,   0.000000 Bohr
  ==> Properties <==


Properties computed using the SCF density matrix

  Nuclear Dipole Moment: (a.u.)
     X:    -0.3163      Y:     2.1610      Z:     3.7715

  Electronic Dipole Moment: (a.u.)
     X:    -0.4020      Y:    -1.6212      Z:    -2.8705

  Dipole Moment: (a.u.)
     X:    -0.7182      Y:     0.5399      Z:     0.9010     Total:     1.2725

  Dipole Moment: (Debye)
     X:    -1.8256      Y:     1.3722      Z:     2.2901     Total:     3.2343


  Saving occupied orbitals to File 180.

*** tstop() called on cx1-3-15-4.cx1.hpc.ic.ac.uk at Tue Jul  5 16:45:19 2016
Module time:
	user time   =      17.57 seconds =       0.29 minutes
	system time =       0.18 seconds =       0.00 minutes
	total time  =         18 seconds =       0.30 minutes
Total time:
	user time   =      17.57 seconds =       0.29 minutes
	system time =       0.18 seconds =       0.00 minutes
	total time  =         18 seconds =       0.30 minutes


Properties will be evaluated at   0.000000,   0.000000,   0.000000 Bohr

Properties computed using the  density matrix

  Nuclear Dipole Moment: (a.u.)
     X:    -0.3163      Y:     2.1610      Z:     3.7715

  Electronic Dipole Moment: (a.u.)
     X:    -0.4020      Y:    -1.6212      Z:    -2.8705

  Dipole Moment: (a.u.)
     X:    -0.7182      Y:     0.5399      Z:     0.9010     Total:     1.2725

  Dipole Moment: (Debye)
     X:    -1.8256      Y:     1.3722      Z:     2.2901     Total:     3.2343

  Quadrupole Moment: (Debye Ang)
    XX:   -51.4828     YY:   -47.9205     ZZ:   -57.4889
    XY:     3.6080     XZ:     5.6348     YZ:    -1.7365

  Traceless Quadrupole Moment: (Debye Ang)
    XX:     0.8146     YY:     4.3769     ZZ:    -5.1916
    XY:     3.6080     XZ:     5.6348     YZ:    -1.7365

  Mulliken Charges: (a.u.)
   Center  Symbol    Alpha    Beta     Spin     Total
       1     H     0.39658  0.39658  0.00000  0.20685
       2     C     3.09760  3.09760  0.00000 -0.19521
       3     C     3.09938  3.09938  0.00000 -0.19876
       4     C     3.09963  3.09963  0.00000 -0.19925
       5     H     0.39548  0.39548  0.00000  0.20904
       6     C     3.09892  3.09892  0.00000 -0.19784
       7     H     0.39597  0.39597  0.00000  0.20806
       8     C     3.10429  3.10429  0.00000 -0.20858
       9     H     0.38813  0.38813  0.00000  0.22373
      10     C     3.02916  3.02916  0.00000 -0.05832
      11     H     0.39586  0.39586  0.00000  0.20828
      12     C     2.75097  2.75097  0.00000  0.49807
      13     C     3.28726  3.28726  0.00000 -0.57451
      14     O     4.25242  4.25242  0.00000 -0.50484
      15     H     0.40792  0.40792  0.00000  0.18416
      16     H     0.39631  0.39631  0.00000  0.20737
      17     H     0.40413  0.40413  0.00000  0.19175

   Total alpha = 32.00000, Total beta = 32.00000, Total charge =  0.00000


*** PSI4 exiting successfully. Buy a developer a beer!
