    -----------------------------------------------------------------------
          Psi4: An Open-Source Ab Initio Electronic Structure Package
                              Psi4 (no tag) Driver

                          Git: Rev {detached?}  

    J. M. Turney, A. C. Simmonett, R. M. Parrish, E. G. Hohenstein,
    F. A. Evangelista, J. T. Fermann, B. J. Mintz, L. A. Burns, J. J. Wilke,
    M. L. Abrams, N. J. Russ, M. L. Leininger, C. L. Janssen, E. T. Seidl,
    W. D. Allen, H. F. Schaefer, R. A. King, E. F. Valeev, C. D. Sherrill,
    and T. D. Crawford, WIREs Comput. Mol. Sci. 2, 556-565 (2012)
    (doi: 10.1002/wcms.93)

                         Additional Contributions by
    A. E. DePrince, M. Saitow, U. Bozkaya, A. Yu. Sokolov
    -----------------------------------------------------------------------


    Psi4 started on: Tue Jul  5 17:09:01 2016

    Process ID:  18008
    PSI4DATADIR: /export131/home/mjharvey/miniconda3/share
    Memory level set to 256.000 MB

  ==> Input File <==

--------------------------------------------------------------------------
set {
	reference rhf
	basis 6-31G*
}


set_num_threads( 1 )
memory 2 gb

molecule MOL {
0 1

O	 -1.716809	 -3.417424	 -3.182569
C	 -2.385319	 -2.716513	 -2.485252
C	 -2.387973	 -1.209204	 -2.670505
C	 -3.282477	 -3.289279	 -1.410812
C	 -1.047154	 -0.600408	 -2.229242
H	 -3.187641	 -0.804232	 -2.059904
H	 -2.589694	 -0.951742	 -3.706386
C	 0.149006	 -1.302371	 -2.876593
H	 -1.054532	 0.453585	 -2.483071
H	 -0.955503	 -0.662267	 -1.145951
C	 0.075323	 -1.399736	 -4.404711
H	 0.247240	 -2.302033	 -2.457363
H	 1.057485	 -0.767858	 -2.606759
C	 -1.053427	 -2.288511	 -4.930067
H	 1.023541	 -1.787350	 -4.768483
H	 -0.024340	 -0.400645	 -4.824201
H	 -0.984148	 -3.291584	 -4.518035
H	 -1.004790	 -2.372263	 -6.011279
H	 -2.032469	 -1.894716	 -4.678683
H	 -2.920867	 -2.984506	 -0.432233
H	 -3.289314	 -4.368698	 -1.470756
H	 -4.294432	 -2.907604	 -1.511179

	symmetry c1
}
set optking {
	frozen_dihedral = ("
		6 3 2 1,
		6 3 5 8,
		12 8 11 15
	")
}

ee = energy('scf')
oeprop('DIPOLE', 'QUADRUPOLE', 'MULLIKEN_CHARGES')
f=open( 'psi4out.xyz', 'w' )
f.write( "22  " )
f.write( str(ee) + "\n" )
f.write( MOL.save_string_xyz() )
f.close()
--------------------------------------------------------------------------

  Memory set to   2.000 GiB by Python script.

*** tstart() called on cx1-3-4-4.cx1.hpc.ic.ac.uk
*** at Tue Jul  5 17:09:02 2016


         ---------------------------------------------------------
                                   SCF
            by Justin Turney, Rob Parrish, and Andy Simmonett
                              RHF Reference
                        1 Threads,   2000 MiB Core
         ---------------------------------------------------------

  ==> Geometry <==

    Molecular point group: c1
    Full point group: C1

    Geometry (in Angstrom), charge = 0, multiplicity = 1:

       Center              X                  Y                   Z               Mass       
    ------------   -----------------  -----------------  -----------------  -----------------
           O         -0.254898600872    -1.370426665313    -0.150265979684    15.994914619560
           C         -0.923408600872    -0.669515665313     0.547051020316    12.000000000000
           C         -0.926062600872     0.837793334687     0.361798020316    12.000000000000
           C         -1.820566600872    -1.242281665313     1.621491020316    12.000000000000
           C          0.414756399128     1.446589334687     0.803061020316    12.000000000000
           H         -1.725730600872     1.242765334687     0.972399020316     1.007825032070
           H         -1.127783600872     1.095255334687    -0.674082979684     1.007825032070
           C          1.610916399128     0.744626334687     0.155710020316    12.000000000000
           H          0.407378399128     2.500582334687     0.549232020316     1.007825032070
           H          0.506407399128     1.384730334687     1.886352020316     1.007825032070
           C          1.537233399128     0.647261334687    -1.372407979684    12.000000000000
           H          1.709150399128    -0.255035665313     0.574940020316     1.007825032070
           H          2.519395399128     1.279139334687     0.425544020316     1.007825032070
           C          0.408483399128    -0.241513665313    -1.897763979684    12.000000000000
           H          2.485451399128     0.259647334687    -1.736179979684     1.007825032070
           H          1.437570399128     1.646352334687    -1.791897979684     1.007825032070
           H          0.477762399128    -1.244586665313    -1.485731979684     1.007825032070
           H          0.457120399128    -0.325265665313    -2.978975979684     1.007825032070
           H         -0.570558600872     0.152281334687    -1.646379979684     1.007825032070
           H         -1.458956600872    -0.937508665313     2.600070020316     1.007825032070
           H         -1.827403600872    -2.321700665313     1.561547020316     1.007825032070
           H         -2.832521600872    -0.860606665313     1.521124020316     1.007825032070

  Running in c1 symmetry.

  Rotational constants: A =      0.10525  B =      0.05362  C =      0.04279 [cm^-1]
  Rotational constants: A =   3155.18643  B =   1607.36250  C =   1282.88285 [MHz]
  Nuclear repulsion =  413.555675021063223

  Charge       = 0
  Multiplicity = 1
  Electrons    = 64
  Nalpha       = 32
  Nbeta        = 32

  ==> Algorithm <==

  SCF Algorithm Type is DF.
  DIIS enabled.
  MOM disabled.
  Fractional occupation disabled.
  Guess Type is CORE.
  Energy threshold   = 1.00e-06
  Density threshold  = 1.00e-06
  Integral threshold = 0.00e+00

  ==> Primary Basis <==

  Basis Set: 6-31G*
    Number of shells: 76
    Number of basis function: 148
    Number of Cartesian functions: 148
    Spherical Harmonics?: false
    Max angular momentum: 2

  ==> Pre-Iterations <==

   -------------------------------------------------------
    Irrep   Nso     Nmo     Nalpha   Nbeta   Ndocc  Nsocc
   -------------------------------------------------------
     A        148     148       0       0       0       0
   -------------------------------------------------------
    Total     148     148      32      32      32       0
   -------------------------------------------------------

 OEINTS: Overlap, kinetic, potential, dipole, and quadrupole integrals
         stored in file 35.

  ==> Integral Setup <==

  ==> DFJK: Density-Fitted J/K Matrices <==

    J tasked:                  Yes
    K tasked:                  Yes
    wK tasked:                  No
    OpenMP threads:              1
    Integrals threads:           1
    Memory (MB):              1430
    Algorithm:                Core
    Integral Cache:           NONE
    Schwarz Cutoff:          1E-12
    Fitting Condition:       1E-12

   => Auxiliary Basis Set <=

  Basis Set: 
    Number of shells: 318
    Number of basis function: 998
    Number of Cartesian functions: 998
    Spherical Harmonics?: false
    Max angular momentum: 3

  Minimum eigenvalue in the overlap matrix is 3.1565430064E-03.
  Using Symmetric Orthogonalization.
  SCF Guess: Core (One-Electron) Hamiltonian.

  ==> Iterations <==

                           Total Energy        Delta E     RMS |[F,P]|

   @DF-RHF iter   1:  -263.88892867723968   -2.63889e+02   6.67121e-02 
   @DF-RHF iter   2:  -230.20877712024475    3.36802e+01   5.03397e-02 DIIS
   @DF-RHF iter   3:  -310.82330705979626   -8.06145e+01   4.07357e-02 DIIS
   @DF-RHF iter   4:  -324.68072694100721   -1.38574e+01   3.98860e-02 DIIS
   @DF-RHF iter   5:  -346.78586979975177   -2.21051e+01   9.11455e-03 DIIS
   @DF-RHF iter   6:  -347.80138273468555   -1.01551e+00   3.43150e-03 DIIS
   @DF-RHF iter   7:  -347.98260719108163   -1.81224e-01   1.04908e-03 DIIS
   @DF-RHF iter   8:  -347.99878614911910   -1.61790e-02   2.45325e-04 DIIS
   @DF-RHF iter   9:  -348.00054409590126   -1.75795e-03   8.88564e-05 DIIS
   @DF-RHF iter  10:  -348.00075456019118   -2.10464e-04   3.27846e-05 DIIS
   @DF-RHF iter  11:  -348.00078966363623   -3.51034e-05   1.88184e-05 DIIS
   @DF-RHF iter  12:  -348.00079657337034   -6.90973e-06   5.28710e-06 DIIS
   @DF-RHF iter  13:  -348.00079782512859   -1.25176e-06   2.64215e-06 DIIS
   @DF-RHF iter  14:  -348.00079810898427   -2.83856e-07   9.78817e-07 DIIS

  ==> Post-Iterations <==

    Orbital Energies (a.u.)
    -----------------------

    Doubly Occupied:                                                      

       1A    -20.546291     2A    -11.333365     3A    -11.233482  
       4A    -11.229898     5A    -11.228555     6A    -11.207058  
       7A    -11.199703     8A    -11.157559     9A     -1.413030  
      10A     -1.093377    11A     -1.039874    12A     -0.987881  
      13A     -0.942162    14A     -0.849572    15A     -0.777938  
      16A     -0.743337    17A     -0.685289    18A     -0.659442  
      19A     -0.631332    20A     -0.608183    21A     -0.591364  
      22A     -0.570145    23A     -0.563717    24A     -0.542543  
      25A     -0.534798    26A     -0.502954    27A     -0.497912  
      28A     -0.468425    29A     -0.449498    30A     -0.443207  
      31A     -0.427571    32A     -0.364548  

    Virtual:                                                              

      33A      0.154646    34A      0.220879    35A      0.259428  
      36A      0.268070    37A      0.282627    38A      0.295591  
      39A      0.300525    40A      0.314587    41A      0.327300  
      42A      0.340149    43A      0.346748    44A      0.352360  
      45A      0.360964    46A      0.384870    47A      0.392798  
      48A      0.406275    49A      0.415899    50A      0.435968  
      51A      0.459111    52A      0.495059    53A      0.510326  
      54A      0.556741    55A      0.712864    56A      0.726589  
      57A      0.736161    58A      0.757429    59A      0.763550  
      60A      0.776081    61A      0.798252    62A      0.835438  
      63A      0.853233    64A      0.895549    65A      0.911626  
      66A      0.935085    67A      0.940800    68A      0.968035  
      69A      0.980654    70A      1.003468    71A      1.028578  
      72A      1.072988    73A      1.092184    74A      1.107836  
      75A      1.120204    76A      1.147814    77A      1.164737  
      78A      1.166554    79A      1.178112    80A      1.182700  
      81A      1.187576    82A      1.213565    83A      1.215861  
      84A      1.230376    85A      1.247630    86A      1.255331  
      87A      1.259412    88A      1.275262    89A      1.291226  
      90A      1.361234    91A      1.375930    92A      1.420591  
      93A      1.480923    94A      1.502160    95A      1.577345  
      96A      1.605068    97A      1.705683    98A      1.718225  
      99A      1.750691   100A      1.807199   101A      1.858780  
     102A      1.911418   103A      1.958313   104A      2.005055  
     105A      2.051168   106A      2.064012   107A      2.081515  
     108A      2.130826   109A      2.164898   110A      2.188312  
     111A      2.243036   112A      2.255470   113A      2.275229  
     114A      2.304493   115A      2.315748   116A      2.345057  
     117A      2.379390   118A      2.448687   119A      2.480822  
     120A      2.505249   121A      2.521808   122A      2.557197  
     123A      2.624402   124A      2.672814   125A      2.678156  
     126A      2.698628   127A      2.716927   128A      2.726723  
     129A      2.762709   130A      2.784047   131A      2.821600  
     132A      2.851884   133A      2.937860   134A      2.991486  
     135A      3.023450   136A      3.051523   137A      3.094770  
     138A      3.153967   139A      3.386802   140A      3.437033  
     141A      4.508233   142A      4.580444   143A      4.670633  
     144A      4.765877   145A      4.791717   146A      4.934204  
     147A      5.026667   148A      5.034256  

    Final Occupation by Irrep:
              A 
    DOCC [    32 ]

  Energy converged.

  @DF-RHF Final Energy:  -348.00079810898427

   => Energetics <=

    Nuclear Repulsion Energy =            413.5556750210632231
    One-Electron Energy =               -1292.0648320020936808
    Two-Electron Energy =                 530.5083588720461876
    DFT Exchange-Correlation Energy =       0.0000000000000000
    Empirical Dispersion Energy =           0.0000000000000000
    PCM Polarization Energy =               0.0000000000000000
    EFP Energy =                            0.0000000000000000
    Total Energy =                       -348.0007981089842133

    Alert: EFP and PCM quantities not currently incorporated into SCF psivars.

Properties will be evaluated at   0.000000,   0.000000,   0.000000 Bohr
  ==> Properties <==


Properties computed using the SCF density matrix

  Nuclear Dipole Moment: (a.u.)
     X:     0.4275      Y:     3.3834      Z:    -0.2089

  Electronic Dipole Moment: (a.u.)
     X:    -1.0970      Y:    -2.8802      Z:     1.1218

  Dipole Moment: (a.u.)
     X:    -0.6695      Y:     0.5032      Z:     0.9129     Total:     1.2389

  Dipole Moment: (Debye)
     X:    -1.7018      Y:     1.2790      Z:     2.3203     Total:     3.1489


  Saving occupied orbitals to File 180.

*** tstop() called on cx1-3-4-4.cx1.hpc.ic.ac.uk at Tue Jul  5 17:09:20 2016
Module time:
	user time   =      17.88 seconds =       0.30 minutes
	system time =       0.20 seconds =       0.00 minutes
	total time  =         18 seconds =       0.30 minutes
Total time:
	user time   =      17.88 seconds =       0.30 minutes
	system time =       0.20 seconds =       0.00 minutes
	total time  =         18 seconds =       0.30 minutes


Properties will be evaluated at   0.000000,   0.000000,   0.000000 Bohr

Properties computed using the  density matrix

  Nuclear Dipole Moment: (a.u.)
     X:     0.4275      Y:     3.3834      Z:    -0.2089

  Electronic Dipole Moment: (a.u.)
     X:    -1.0970      Y:    -2.8802      Z:     1.1218

  Dipole Moment: (a.u.)
     X:    -0.6695      Y:     0.5032      Z:     0.9129     Total:     1.2389

  Dipole Moment: (Debye)
     X:    -1.7018      Y:     1.2790      Z:     2.3203     Total:     3.1489

  Quadrupole Moment: (Debye Ang)
    XX:   -49.4722     YY:   -53.8822     ZZ:   -52.7928
    XY:     0.5008     XZ:    -1.0704     YZ:    -1.6523

  Traceless Quadrupole Moment: (Debye Ang)
    XX:     2.5769     YY:    -1.8332     ZZ:    -0.7437
    XY:     0.5008     XZ:    -1.0704     YZ:    -1.6523

  Mulliken Charges: (a.u.)
   Center  Symbol    Alpha    Beta     Spin     Total
       1     O     4.26415  4.26415  0.00000 -0.52831
       2     C     2.72942  2.72942  0.00000  0.54117
       3     C     3.22522  3.22522  0.00000 -0.45044
       4     C     3.28736  3.28736  0.00000 -0.57473
       5     C     3.15567  3.15567  0.00000 -0.31133
       6     H     0.41381  0.41381  0.00000  0.17239
       7     H     0.38575  0.38575  0.00000  0.22851
       8     C     3.16049  3.16049  0.00000 -0.32098
       9     H     0.41343  0.41343  0.00000  0.17314
      10     H     0.41910  0.41910  0.00000  0.16180
      11     C     3.15066  3.15066  0.00000 -0.30132
      12     H     0.41395  0.41395  0.00000  0.17211
      13     H     0.42186  0.42186  0.00000  0.15629
      14     C     3.23631  3.23631  0.00000 -0.47261
      15     H     0.42129  0.42129  0.00000  0.15743
      16     H     0.43057  0.43057  0.00000  0.13887
      17     H     0.37288  0.37288  0.00000  0.25423
      18     H     0.43957  0.43957  0.00000  0.12085
      19     H     0.44851  0.44851  0.00000  0.10299
      20     H     0.40549  0.40549  0.00000  0.18902
      21     H     0.39673  0.39673  0.00000  0.20655
      22     H     0.40780  0.40780  0.00000  0.18441

   Total alpha = 32.00000, Total beta = 32.00000, Total charge = -0.00000


*** PSI4 exiting successfully. Buy a developer a beer!
