
    -----------------------------------------------------------------------
          Psi4: An Open-Source Ab Initio Electronic Structure Package
                               Psi4 1.1 release

                         Git: Rev {HEAD} add49b9 


    R. M. Parrish, L. A. Burns, D. G. A. Smith, A. C. Simmonett,
    A. E. DePrince III, E. G. Hohenstein, U. Bozkaya, A. Yu. Sokolov,
    R. Di Remigio, R. M. Richard, J. F. Gonthier, A. M. James,
    H. R. McAlexander, A. Kumar, M. Saitow, X. Wang, B. P. Pritchard,
    P. Verma, H. F. Schaefer III, K. Patkowski, R. A. King, E. F. Valeev,
    F. A. Evangelista, J. M. Turney, T. D. Crawford, and C. D. Sherrill,
    J. Chem. Theory Comput. in press (2017).
    (doi: 10.1021/acs.jctc.7b00174)

    -----------------------------------------------------------------------


    Psi4 started on: Tuesday, 12 December 2017 02:47PM

    Process ID:  28448
    PSIDATADIR: /opt/acellera/miniconda3/share/psi4
    Memory:     500.0 MiB
    Threads:    1
    
  ==> Input File <==

--------------------------------------------------------------------------
set_num_threads(1)
set_memory(3145728000)

set { reference rks }
set { basis 6-31G* }

molecule MOL {
    1 1
    noreorient
    nocom
    symmetry c1
    C    0.000000   0.000000  -0.177864
    C    0.036678   1.219374   0.524165
    C    0.031764   1.213119   1.915444
    C   -0.000000  -0.000000   2.610107
    C   -0.031764  -1.213119   1.915444
    C   -0.036677  -1.219374   0.524165
    C    0.000000  -0.000000  -1.644734
    H    0.018170   2.164705  -0.010853
    H    0.042402   2.152895   2.457886
    H   -0.000000  -0.000000   3.695756
    H   -0.042402  -2.152895   2.457886
    H   -0.018170  -2.164705  -0.010853
    N   -0.980419   0.606060  -2.308461
    N    0.980419  -0.606060  -2.308460
    H    1.075891  -0.555834  -3.315997
    H    1.631577  -1.201131  -1.813316
    H   -1.631576   1.201131  -1.813317
    H   -1.075890   0.555833  -3.315997
}

set optking { frozen_dihedral = (" 2 1 7 13 ") }

set optking { dynamic_level = 1 
 geom_maxiter = 250
 print_trajectory_xyz_file = True }

energy, wfn = optimize('B3LYP-D3', return_wfn=True)

import os
os.chdir(os.environ['HTMD_PSI4_WORKDIR'])

oeprop(wfn, 'DIPOLE', 'QUADRUPOLE', 'MULLIKEN_CHARGES')

with open('psi4out.xyz', 'w') as f:
    f.write('18 ' )
    f.write('%.12f\n' % energy)
    f.write(MOL.save_string_xyz())
--------------------------------------------------------------------------
  Threads set to 1 by Python driver.

  Memory set to   2.930 GiB by Python driver.
gradient() will perform analytic gradient computation.

*** tstart() called on computer05
*** at Tue Dec 12 14:47:33 2017

   => Loading Basis Set <=

    Name: 6-31G*
    Role: ORBITAL
    Keyword: BASIS
    atoms 1-7         entry C          line   102 file /opt/acellera/miniconda3/share/psi4/basis/6-31gs.gbs 
    atoms 8-12, 15-18 entry H          line    35 file /opt/acellera/miniconda3/share/psi4/basis/6-31gs.gbs 
    atoms 13-14       entry N          line   119 file /opt/acellera/miniconda3/share/psi4/basis/6-31gs.gbs 


         ---------------------------------------------------------
                                   SCF
            by Justin Turney, Rob Parrish, and Andy Simmonett
                              RKS Reference
                        1 Threads,   3000 MiB Core
         ---------------------------------------------------------

  ==> Geometry <==

    Molecular point group: c1
    Full point group: C1

    Geometry (in Angstrom), charge = 1, multiplicity = 1:

       Center              X                  Y                   Z               Mass       
    ------------   -----------------  -----------------  -----------------  -----------------
           C          0.000000000000     0.000000000000    -0.177864000000    12.000000000000
           C          0.036678000000     1.219374000000     0.524165000000    12.000000000000
           C          0.031764000000     1.213119000000     1.915444000000    12.000000000000
           C          0.000000000000     0.000000000000     2.610107000000    12.000000000000
           C         -0.031764000000    -1.213119000000     1.915444000000    12.000000000000
           C         -0.036677000000    -1.219374000000     0.524165000000    12.000000000000
           C          0.000000000000     0.000000000000    -1.644734000000    12.000000000000
           H          0.018170000000     2.164705000000    -0.010853000000     1.007825032070
           H          0.042402000000     2.152895000000     2.457886000000     1.007825032070
           H          0.000000000000     0.000000000000     3.695756000000     1.007825032070
           H         -0.042402000000    -2.152895000000     2.457886000000     1.007825032070
           H         -0.018170000000    -2.164705000000    -0.010853000000     1.007825032070
           N         -0.980419000000     0.606060000000    -2.308461000000    14.003074004780
           N          0.980419000000    -0.606060000000    -2.308460000000    14.003074004780
           H          1.075891000000    -0.555834000000    -3.315997000000     1.007825032070
           H          1.631577000000    -1.201131000000    -1.813316000000     1.007825032070
           H         -1.631576000000     1.201131000000    -1.813317000000     1.007825032070
           H         -1.075890000000     0.555833000000    -3.315997000000     1.007825032070

  Running in c1 symmetry.

  Rotational constants: A =      0.12190  B =      0.03807  C =      0.03230 [cm^-1]
  Rotational constants: A =   3654.48943  B =   1141.45815  C =    968.19321 [MHz]
  Nuclear repulsion =  416.269104402747416

  Charge       = 1
  Multiplicity = 1
  Electrons    = 64
  Nalpha       = 32
  Nbeta        = 32

  ==> Algorithm <==

  SCF Algorithm Type is DF.
  DIIS enabled.
  MOM disabled.
  Fractional occupation disabled.
  Guess Type is SAD.
  Energy threshold   = 1.00e-08
  Density threshold  = 1.00e-08
  Integral threshold = 0.00e+00

  ==> Primary Basis <==

  Basis Set: 6-31G*
    Blend: 6-31G*
    Number of shells: 72
    Number of basis function: 153
    Number of Cartesian functions: 153
    Spherical Harmonics?: false
    Max angular momentum: 2

  ==> DFT Potential <==

   => B3LYP Composite Functional <= 

    B3LYP Hybrid-GGA Exchange-Correlation Functional (VWN1-RPA)

    P.J. Stephens et. al., J. Phys. Chem., 98, 11623-11627, 1994

    Points   =           5000
    Deriv    =              1
    GGA      =           TRUE
    Meta     =          FALSE

    X_LRC        =          FALSE
    X_Hybrid     =           TRUE
    X_Alpha      =   2.000000E-01
    X_Omega      =   0.000000E+00
    C_LRC        =          FALSE
    C_Hybrid     =          FALSE
    C_Alpha      =   0.000000E+00
    C_Omega      =   0.000000E+00

   => Exchange Functionals <=

    0.8000    B3_X
    0.2000      HF 

   => Correlation Functionals <=

    0.1900 VWN3RPA_C
    0.8100   LYP_C

   => Molecular Quadrature <=

    Radial Scheme    =       TREUTLER
    Pruning Scheme   =           FLAT
    Nuclear Scheme   =       TREUTLER

    BS radius alpha  =              1
    Pruning alpha    =              1
    Radial Points    =             75
    Spherical Points =            302
    Total Points     =         397094
    Total Blocks     =            362
    Max Points       =           4993
    Max Functions    =            151

   => -D3ZERO: Empirical Dispersion <=

    Grimme's -D3 (zero-damping) Dispersion Correction
    Grimme S.; Antony J.; Ehrlich S.; Krieg H. (2010), J. Chem. Phys., 132: 154104

        S6 =   1.000000E+00
        S8 =   1.703000E+00
       SR6 =   1.261000E+00
    ALPHA6 =   1.400000E+01

   => Loading Basis Set <=

    Name: (6-31G* AUX)
    Role: JKFIT
    Keyword: DF_BASIS_SCF
    atoms 1-7         entry C          line   120 file /opt/acellera/miniconda3/share/psi4/basis/cc-pvdz-jkfit.gbs 
    atoms 8-12, 15-18 entry H          line    50 file /opt/acellera/miniconda3/share/psi4/basis/cc-pvdz-jkfit.gbs 
    atoms 13-14       entry N          line   170 file /opt/acellera/miniconda3/share/psi4/basis/cc-pvdz-jkfit.gbs 

  ==> Pre-Iterations <==

   -------------------------------------------------------
    Irrep   Nso     Nmo     Nalpha   Nbeta   Ndocc  Nsocc
   -------------------------------------------------------
     A        153     153       0       0       0       0
   -------------------------------------------------------
    Total     153     153      32      32      32       0
   -------------------------------------------------------

  ==> Integral Setup <==

  ==> DFJK: Density-Fitted J/K Matrices <==

    J tasked:                  Yes
    K tasked:                  Yes
    wK tasked:                  No
    OpenMP threads:              1
    Integrals threads:           1
    Memory (MB):              2250
    Algorithm:                Core
    Integral Cache:           NONE
    Schwarz Cutoff:          1E-12
    Fitting Condition:       1E-12

   => Auxiliary Basis Set <=

  Basis Set: (6-31G* AUX)
    Blend: CC-PVDZ-JKFIT
    Number of shells: 297
    Number of basis function: 954
    Number of Cartesian functions: 954
    Spherical Harmonics?: false
    Max angular momentum: 3

  Minimum eigenvalue in the overlap matrix is 4.8802831046E-04.
  Using Symmetric Orthogonalization.

  SCF Guess: Superposition of Atomic Densities via on-the-fly atomic UHF.

  ==> Iterations <==

                           Total Energy        Delta E     RMS |[F,P]|

   @DF-RKS iter   0:  -379.36715232306784   -3.79367e+02   3.34258e-02 
   @DF-RKS iter   1:  -380.99976656519806   -1.63261e+00   6.11323e-03 
   @DF-RKS iter   2:  -380.92247546576215    7.72911e-02   6.64371e-03 DIIS
   @DF-RKS iter   3:  -381.45421388376747   -5.31738e-01   8.76731e-04 DIIS
   @DF-RKS iter   4:  -381.45977799369933   -5.56411e-03   5.71936e-04 DIIS
   @DF-RKS iter   5:  -381.46370719263030   -3.92920e-03   1.24383e-04 DIIS
   @DF-RKS iter   6:  -381.46387270839529   -1.65516e-04   4.16171e-05 DIIS
   @DF-RKS iter   7:  -381.46389222117551   -1.95128e-05   1.03798e-05 DIIS
   @DF-RKS iter   8:  -381.46389325512348   -1.03395e-06   2.90169e-06 DIIS
   @DF-RKS iter   9:  -381.46389334438044   -8.92570e-08   6.63444e-07 DIIS
   @DF-RKS iter  10:  -381.46389334848993   -4.10949e-09   2.69398e-07 DIIS
   @DF-RKS iter  11:  -381.46389334933031   -8.40373e-10   3.59889e-08 DIIS
   @DF-RKS iter  12:  -381.46389334933406   -3.75167e-12   3.18563e-08 DIIS
   @DF-RKS iter  13:  -381.46389334934656   -1.25056e-11   4.91525e-09 DIIS

  ==> Post-Iterations <==

    Orbital Energies (a.u.)
    -----------------------

    Doubly Occupied:                                                      

       1A    -14.573817     2A    -14.573809     3A    -10.503222  
       4A    -10.370948     5A    -10.352257     6A    -10.352249  
       7A    -10.336622     8A    -10.336231     9A    -10.335858  
      10A     -1.188595    11A     -1.096315    12A     -1.011106  
      13A     -0.925333    14A     -0.898201    15A     -0.846345  
      16A     -0.787993    17A     -0.770073    18A     -0.747969  
      19A     -0.731066    20A     -0.692046    21A     -0.668633  
      22A     -0.622240    23A     -0.620867    24A     -0.580733  
      25A     -0.575993    26A     -0.570994    27A     -0.515099  
      28A     -0.502418    29A     -0.493938    30A     -0.475745  
      31A     -0.405738    32A     -0.401491  

    Virtual:                                                              

      33A     -0.206900    34A     -0.154234    35A     -0.153056  
      36A     -0.111287    37A     -0.067993    38A     -0.064439  
      39A     -0.038588    40A     -0.033405    41A      0.009845  
      42A      0.017867    43A      0.023179    44A      0.058988  
      45A      0.061632    46A      0.073480    47A      0.133941  
      48A      0.148936    49A      0.162154    50A      0.172242  
      51A      0.203350    52A      0.224825    53A      0.295058  
      54A      0.345463    55A      0.356030    56A      0.377228  
      57A      0.389272    58A      0.397727    59A      0.407591  
      60A      0.424994    61A      0.447925    62A      0.450142  
      63A      0.450520    64A      0.470571    65A      0.472805  
      66A      0.478589    67A      0.483851    68A      0.512477  
      69A      0.515476    70A      0.535614    71A      0.542254  
      72A      0.566496    73A      0.598959    74A      0.653007  
      75A      0.659216    76A      0.680769    77A      0.681771  
      78A      0.702049    79A      0.708237    80A      0.709845  
      81A      0.732097    82A      0.758708    83A      0.777916  
      84A      0.792687    85A      0.813287    86A      0.833755  
      87A      0.852908    88A      0.937053    89A      0.970893  
      90A      1.008804    91A      1.010516    92A      1.021662  
      93A      1.026481    94A      1.062978    95A      1.134748  
      96A      1.196969    97A      1.207325    98A      1.277136  
      99A      1.282261   100A      1.326075   101A      1.327934  
     102A      1.345123   103A      1.363531   104A      1.379851  
     105A      1.419987   106A      1.445225   107A      1.497845  
     108A      1.609116   109A      1.643679   110A      1.648899  
     111A      1.665978   112A      1.739274   113A      1.757767  
     114A      1.804314   115A      1.822176   116A      1.850406  
     117A      1.892287   118A      1.906949   119A      1.956678  
     120A      1.981925   121A      1.998942   122A      2.012186  
     123A      2.037698   124A      2.083246   125A      2.132018  
     126A      2.148735   127A      2.158745   128A      2.168347  
     129A      2.217194   130A      2.262470   131A      2.372224  
     132A      2.372730   133A      2.417241   134A      2.449157  
     135A      2.499182   136A      2.563129   137A      2.575200  
     138A      2.591558   139A      2.604935   140A      2.629050  
     141A      2.725877   142A      2.882728   143A      2.944629  
     144A      3.258281   145A      3.633736   146A      3.638719  
     147A      3.934860   148A      3.965124   149A      3.969517  
     150A      4.091540   151A      4.181775   152A      4.259432  
     153A      4.548425  

    Final Occupation by Irrep:
              A 
    DOCC [    32 ]

  Energy converged.

  @DF-RKS Final Energy:  -381.46389334934656

   => Energetics <=

    Nuclear Repulsion Energy =            416.2691044027474163
    One-Electron Energy =               -1327.7922957896889784
    Two-Electron Energy =                 574.4741008386056365
    DFT Exchange-Correlation Energy =     -44.4029113010105903
    Empirical Dispersion Energy =          -0.0118915000000000
    PCM Polarization Energy =               0.0000000000000000
    EFP Energy =                            0.0000000000000000
    Total Energy =                       -381.4638933493465061



Properties will be evaluated at   0.000000,   0.000000,   0.000000 Bohr

Properties computed using the SCF density matrix

  Nuclear Dipole Moment: (a.u.)
     X:     0.0000      Y:    -0.0000      Z:     0.0248

  Electronic Dipole Moment: (a.u.)
     X:    -0.0000      Y:     0.0000      Z:    -2.4928

  Dipole Moment: (a.u.)
     X:     0.0000      Y:    -0.0000      Z:    -2.4680     Total:     2.4680

  Dipole Moment: (Debye)
     X:     0.0000      Y:    -0.0000      Z:    -6.2731     Total:     6.2731


*** tstop() called on computer05 at Tue Dec 12 14:49:06 2017
Module time:
	user time   =      91.32 seconds =       1.52 minutes
	system time =       0.91 seconds =       0.02 minutes
	total time  =         93 seconds =       1.55 minutes
Total time:
	user time   =      91.32 seconds =       1.52 minutes
	system time =       0.91 seconds =       0.02 minutes
	total time  =         93 seconds =       1.55 minutes

*** tstart() called on computer05
*** at Tue Dec 12 14:49:06 2017


         ------------------------------------------------------------
                                   SCF GRAD                          
                          Rob Parrish, Justin Turney,                
                       Andy Simmonett, and Alex Sokolov              
         ------------------------------------------------------------

  ==> Geometry <==

    Molecular point group: c1
    Full point group: C1

    Geometry (in Angstrom), charge = 1, multiplicity = 1:

       Center              X                  Y                   Z               Mass       
    ------------   -----------------  -----------------  -----------------  -----------------
           C          0.000000000000     0.000000000000    -0.177864000000    12.000000000000
           C          0.036678000000     1.219374000000     0.524165000000    12.000000000000
           C          0.031764000000     1.213119000000     1.915444000000    12.000000000000
           C          0.000000000000     0.000000000000     2.610107000000    12.000000000000
           C         -0.031764000000    -1.213119000000     1.915444000000    12.000000000000
           C         -0.036677000000    -1.219374000000     0.524165000000    12.000000000000
           C          0.000000000000     0.000000000000    -1.644734000000    12.000000000000
           H          0.018170000000     2.164705000000    -0.010853000000     1.007825032070
           H          0.042402000000     2.152895000000     2.457886000000     1.007825032070
           H          0.000000000000     0.000000000000     3.695756000000     1.007825032070
           H         -0.042402000000    -2.152895000000     2.457886000000     1.007825032070
           H         -0.018170000000    -2.164705000000    -0.010853000000     1.007825032070
           N         -0.980419000000     0.606060000000    -2.308461000000    14.003074004780
           N          0.980419000000    -0.606060000000    -2.308460000000    14.003074004780
           H          1.075891000000    -0.555834000000    -3.315997000000     1.007825032070
           H          1.631577000000    -1.201131000000    -1.813316000000     1.007825032070
           H         -1.631576000000     1.201131000000    -1.813317000000     1.007825032070
           H         -1.075890000000     0.555833000000    -3.315997000000     1.007825032070

  Nuclear repulsion =  416.269104402747416

  ==> Basis Set <==

  Basis Set: 6-31G*
    Blend: 6-31G*
    Number of shells: 72
    Number of basis function: 153
    Number of Cartesian functions: 153
    Spherical Harmonics?: false
    Max angular momentum: 2

  ==> DFJKGrad: Density-Fitted SCF Gradients <==

    Gradient:                    1
    J tasked:                  Yes
    K tasked:                  Yes
    wK tasked:                  No
    OpenMP threads:              1
    Integrals threads:           1
    Memory (MB):              2250
    Schwarz Cutoff:          0E+00
    Fitting Condition:       1E-12

   => Auxiliary Basis Set <=

  Basis Set: (6-31G* AUX)
    Blend: CC-PVDZ-JKFIT
    Number of shells: 297
    Number of basis function: 954
    Number of Cartesian functions: 954
    Spherical Harmonics?: false
    Max angular momentum: 3

  ==> DFT Potential <==

   => B3LYP Composite Functional <= 

    B3LYP Hybrid-GGA Exchange-Correlation Functional (VWN1-RPA)

    P.J. Stephens et. al., J. Phys. Chem., 98, 11623-11627, 1994

    Points   =           5000
    Deriv    =              1
    GGA      =           TRUE
    Meta     =          FALSE

    X_LRC        =          FALSE
    X_Hybrid     =           TRUE
    X_Alpha      =   2.000000E-01
    X_Omega      =   0.000000E+00
    C_LRC        =          FALSE
    C_Hybrid     =          FALSE
    C_Alpha      =   0.000000E+00
    C_Omega      =   0.000000E+00

   => Exchange Functionals <=

    0.8000    B3_X
    0.2000      HF 

   => Correlation Functionals <=

    0.1900 VWN3RPA_C
    0.8100   LYP_C

   => Molecular Quadrature <=

    Radial Scheme    =       TREUTLER
    Pruning Scheme   =           FLAT
    Nuclear Scheme   =       TREUTLER

    BS radius alpha  =              1
    Pruning alpha    =              1
    Radial Points    =             75
    Spherical Points =            302
    Total Points     =         397094
    Total Blocks     =            362
    Max Points       =           4993
    Max Functions    =            151


  -Total Gradient:
     Atom            X                  Y                   Z
    ------   -----------------  -----------------  -----------------
       1       -0.000000061434     0.000000078364    -0.011103154429
       2        0.008160287726     0.000619810423     0.003891336395
       3        0.000499049717     0.001897576388    -0.001649327836
       4        0.000000013992     0.000000030441     0.000076221379
       5       -0.000499179853    -0.001897588774    -0.001649297656
       6       -0.008160024586    -0.000619828131     0.003891316582
       7        0.000000197358    -0.000000186322     0.010566565984
       8       -0.003063952049    -0.000098470091     0.000735861594
       9       -0.000868098413    -0.000090131764     0.000121932981
      10        0.000000015733    -0.000000001929     0.000038877725
      11        0.000868104144     0.000090110904     0.000121945974
      12        0.003063898322     0.000098439941     0.000735849608
      13       -0.005226412377    -0.002939037580    -0.002282002482
      14        0.005225538210     0.002939595337    -0.002280992401
      15        0.001904127503     0.002965951752     0.001075697376
      16       -0.002862329935    -0.002999385777    -0.001686152434
      17        0.002862780907     0.002999019285    -0.001686309224
      18       -0.001903955341    -0.002965982280     0.001076575088


*** tstop() called on computer05 at Tue Dec 12 14:49:28 2017
Module time:
	user time   =      21.57 seconds =       0.36 minutes
	system time =       0.51 seconds =       0.01 minutes
	total time  =         22 seconds =       0.37 minutes
Total time:
	user time   =     112.90 seconds =       1.88 minutes
	system time =       1.42 seconds =       0.02 minutes
	total time  =        115 seconds =       1.92 minutes

			-----------------------------------------
			 OPTKING 2.0: for geometry optimizations 
			  - R.A. King,  Bethel University        
			-----------------------------------------
	At level 1: Red. Int., RFO, no backsteps, dynamic trust

	Internal coordinates to be generated automatically.
	Detected frag 1 with atoms:  1 2 3 4 5 6 7 8 9 10 11 12 13 14 15 16 17 18
	---Fragment 1 Bond Connectivity---
	 1 : 2 6 7
	 2 : 1 3 8
	 3 : 2 4 9
	 4 : 3 5 10
	 5 : 4 6 11
	 6 : 1 5 12
	 7 : 1 13 14
	 8 : 2
	 9 : 3
	 10 : 4
	 11 : 5
	 12 : 6
	 13 : 7 17 18
	 14 : 7 15 16
	 15 : 14
	 16 : 14
	 17 : 13
	 18 : 13

	Assuming in current code that numbering for constraints corresponds to unified fragment.
	Frozen dihedral atom list: 
	     2     1     7    13
	---Fragment 1 Geometry and Gradient---
	 C           0.0000000000        0.0000000000       -0.3361142489
	 C           0.0693113751        2.3042829136        0.9905282984
	 C           0.0600252609        2.2924626766        3.6196645829
	 C           0.0000000000        0.0000000000        4.9323874075
	 C          -0.0600252609       -2.2924626766        3.6196645829
	 C          -0.0693094854       -2.3042829136        0.9905282984
	 C           0.0000000000        0.0000000000       -3.1080968214
	 H           0.0343363238        4.0906996085       -0.0205091977
	 H           0.0801281675        4.0683819429        4.6447314059
	 H           0.0000000000        0.0000000000        6.9839666940
	 H          -0.0801281675       -4.0683819429        4.6447314059
	 H          -0.0343363238       -4.0906996085       -0.0205091977
	 N          -1.8527234055        1.1452874201       -4.3623590784
	 N           1.8527234055       -1.1452874201       -4.3623571887
	 H           2.0331393388       -1.0503740353       -6.2663261875
	 H           3.0832336947       -2.2698086397       -3.4266706324
	 H          -3.0832318050        2.2698086397       -3.4266725221
	 H          -2.0331374491        1.0503721456       -6.2663261875
	            -0.0000000614        0.0000000784       -0.0111031544
	             0.0081602877        0.0006198104        0.0038913364
	             0.0004990497        0.0018975764       -0.0016493278
	             0.0000000140        0.0000000304        0.0000762214
	            -0.0004991799       -0.0018975888       -0.0016492977
	            -0.0081600246       -0.0006198281        0.0038913166
	             0.0000001974       -0.0000001863        0.0105665660
	            -0.0030639520       -0.0000984701        0.0007358616
	            -0.0008680984       -0.0000901318        0.0001219330
	             0.0000000157       -0.0000000019        0.0000388777
	             0.0008681041        0.0000901109        0.0001219460
	             0.0030638983        0.0000984399        0.0007358496
	            -0.0052264124       -0.0029390376       -0.0022820025
	             0.0052255382        0.0029395953       -0.0022809924
	             0.0019041275        0.0029659518        0.0010756974
	            -0.0028623299       -0.0029993858       -0.0016861524
	             0.0028627809        0.0029990193       -0.0016863092
	            -0.0019039553       -0.0029659823        0.0010765751

	Previous optimization step data not found.  Starting new optimization.

	---Fragment 1 Intrafragment Coordinates---
	 - Coordinate -           - BOHR/RAD -       - ANG/DEG -
	 R(1,2)           =         2.659794	       1.407502
	 R(1,6)           =         2.659794	       1.407502
	 R(1,7)           =         2.771983	       1.466870
	 R(2,3)           =         2.629179	       1.391302
	 R(2,8)           =         2.052975	       1.086387
	 R(3,4)           =         2.642391	       1.398293
	 R(3,9)           =         2.050623	       1.085143
	 R(4,5)           =         2.642391	       1.398293
	 R(4,10)          =         2.051579	       1.085649
	 R(5,6)           =         2.629179	       1.391302
	 R(5,11)          =         2.050623	       1.085143
	 R(6,12)          =         2.052975	       1.086387
	 R(7,13)          =         2.513452	       1.330062
	 R(7,14)          =         2.513451	       1.330061
	 R(13,17)         =         1.911598	       1.011574
	 R(13,18)         =         1.914850	       1.013295
	 R(14,15)         =         1.914852	       1.013296
	 R(14,16)         =         1.911600	       1.011575
	 B(1,2,3)         =         2.088380	     119.655334
	 B(1,2,8)         =         2.103396	     120.515735
	 B(1,6,5)         =         2.088380	     119.655336
	 B(1,6,12)        =         2.103396	     120.515739
	 B(1,7,13)        =         2.093264	     119.935170
	 B(1,7,14)        =         2.093263	     119.935132
	 B(2,1,6)         =         2.097220	     120.161836
	 B(2,1,7)         =         2.092983	     119.919082
	 B(2,3,4)         =         2.095280	     120.050699
	 B(2,3,9)         =         2.089718	     119.732039
	 B(3,2,8)         =         2.090149	     119.756716
	 B(3,4,5)         =         2.101792	     120.423818
	 B(3,4,10)        =         2.090697	     119.788091
	 B(4,3,9)         =         2.098135	     120.214304
	 B(4,5,6)         =         2.095280	     120.050698
	 B(4,5,11)        =         2.098135	     120.214304
	 B(5,4,10)        =         2.090697	     119.788091
	 B(5,6,12)        =         2.090149	     119.756718
	 B(6,1,7)         =         2.092983	     119.919082
	 B(6,5,11)        =         2.089718	     119.732040
	 B(7,13,17)       =         2.092411	     119.886328
	 B(7,13,18)       =         2.144859	     122.891370
	 B(7,14,15)       =         2.144860	     122.891409
	 B(7,14,16)       =         2.092412	     119.886391
	 B(13,7,14)       =         2.096659	     120.129698
	 B(15,14,16)      =         2.043399	     117.078141
	 B(17,13,18)      =         2.043401	     117.078243
	 D(1,2,3,4)       =         0.007800	       0.446917
	 D(1,2,3,9)       =        -3.122897	    -178.928796
	 D(1,6,5,4)       =         0.007799	       0.446823
	 D(1,6,5,11)      =        -3.122897	    -178.928843
	 D(1,7,13,17)     =         0.187845	      10.762726
	 D(1,7,13,18)     =        -3.032165	    -173.730231
	 D(1,7,14,15)     =        -3.032165	    -173.730256
	 D(1,7,14,16)     =         0.187844	      10.762691
	 D(2,1,6,5)       =        -0.003905	      -0.223756
	 D(2,1,6,12)      =        -3.091438	    -177.126344
	*D(2,1,7,13)      =        -1.047198	     -60.000026
	 D(2,1,7,14)      =         2.094395	     119.999974
	 D(2,3,4,5)       =        -0.003943	      -0.225922
	 D(2,3,4,10)      =         3.137650	     179.774078
	 D(3,2,1,6)       =        -0.003908	      -0.223897
	 D(3,2,1,7)       =         3.137686	     179.776150
	 D(3,4,5,6)       =        -0.003942	      -0.225875
	 D(3,4,5,11)      =         3.126701	     179.146753
	 D(4,3,2,8)       =         3.095745	     177.373103
	 D(4,5,6,12)      =         3.095746	     177.373164
	 D(5,4,3,9)       =         3.126701	     179.146753
	 D(5,6,1,7)       =         3.137687	     179.776197
	 D(6,1,2,8)       =        -3.091438	    -177.126330
	 D(6,1,7,13)      =         2.094395	     120.000021
	 D(6,1,7,14)      =        -1.047197	     -59.999979
	 D(6,5,4,10)      =         3.137650	     179.774125
	 D(7,1,2,8)       =         0.050156	       2.873717
	 D(7,1,6,12)      =         0.050154	       2.873609
	 D(8,2,3,9)       =        -0.034952	      -2.002610
	 D(9,3,4,10)      =        -0.014892	      -0.853247
	 D(10,4,5,11)     =        -0.014892	      -0.853247
	 D(11,5,6,12)     =        -0.034950	      -2.002502
	 D(13,7,14,15)    =         0.109428	       6.269744
	 D(13,7,14,16)    =        -2.953748	    -169.237309
	 D(14,7,13,17)    =        -2.953748	    -169.237274
	 D(14,7,13,18)    =         0.109428	       6.269769

	Current energy   :      -381.4638933493

	Generating empirical Hessian (Schlegel '84) for each fragment.
	Taking RFO optimization step.
	Going to follow RFO solution 1.
	Using RFO vector 1.
	Norm of target step-size    0.43268
	Projected energy change by RFO approximation:        -0.0005737769

	Back-transformation to cartesian coordinates...
	Could not converge backtransformation.
	Using first guess instead.

	Back-transformation to cartesian coordinates to adjust frozen coordinates...
	Successfully converged to displaced geometry.

	--- Internal Coordinate Step in ANG or DEG, aJ/ANG or AJ/DEG ---
	 ---------------------------------------------------------------------------
	   Coordinate                Previous        Force       Change         New 
	   ----------                --------       ------       ------       ------
	    1 R(1,2)          =      1.407502    -0.025397    -0.003695     1.403807
	    2 R(1,6)          =      1.407502    -0.025401    -0.003043     1.404459
	    3 R(1,7)          =      1.466870     0.039425     0.007069     1.473939
	    4 R(2,3)          =      1.391302     0.012110     0.001870     1.393171
	    5 R(2,8)          =      1.086387     0.003262     0.001661     1.088048
	    6 R(3,4)          =      1.398293    -0.005435    -0.000576     1.397717
	    7 R(3,9)          =      1.085143     0.000210     0.000388     1.085532
	    8 R(4,5)          =      1.398293    -0.005439    -0.000586     1.397707
	    9 R(4,10)         =      1.085649    -0.000323    -0.000028     1.085621
	   10 R(5,6)          =      1.391302     0.012103     0.001685     1.392987
	   11 R(5,11)         =      1.085143     0.000210     0.000138     1.085281
	   12 R(6,12)         =      1.086387     0.003262     0.001407     1.087794
	   13 R(7,13)         =      1.330062    -0.026893    -0.002870     1.327191
	   14 R(7,14)         =      1.330061    -0.026890    -0.002230     1.327831
	   15 R(13,17)        =      1.011574     0.007447     0.007288     1.018862
	   16 R(13,18)        =      1.013295     0.006132     0.004889     1.018184
	   17 R(14,15)        =      1.013296     0.006125     0.006398     1.019694
	   18 R(14,16)        =      1.011575     0.007443     0.006716     1.018290
	   19 B(1,2,3)        =    119.655334    -0.000091    -0.306466   119.348868
	   20 B(1,2,8)        =    120.515735     0.000007    -0.001499   120.514236
	   21 B(1,6,5)        =    119.655336    -0.000091    -0.319272   119.336064
	   22 B(1,6,12)       =    120.515739     0.000008    -0.043467   120.472271
	   23 B(1,7,13)       =    119.935170    -0.000137    -0.401185   119.533985
	   24 B(1,7,14)       =    119.935132    -0.000137    -0.440121   119.495011
	   25 B(2,1,6)        =    120.161836     0.000191     0.516966   120.678802
	   26 B(2,1,7)        =    119.919082    -0.000095    -0.251900   119.667182
	   27 B(2,3,4)        =    120.050699     0.000014     0.076552   120.127251
	   28 B(2,3,9)        =    119.732039    -0.000020    -0.077981   119.654058
	   29 B(3,2,8)        =    119.756716     0.000091     0.359817   120.116533
	   30 B(3,4,5)        =    120.423818    -0.000036    -0.066679   120.357139
	   31 B(3,4,10)       =    119.788091     0.000018     0.035698   119.823790
	   32 B(4,3,9)        =    120.214304     0.000006     0.003031   120.217335
	   33 B(4,5,6)        =    120.050698     0.000014     0.075215   120.125913
	   34 B(4,5,11)       =    120.214304     0.000006     0.017386   120.231690
	   35 B(5,4,10)       =    119.788091     0.000018     0.030337   119.818428
	   36 B(5,6,12)       =    119.756718     0.000091     0.406721   120.163439
	   37 B(6,1,7)        =    119.919082    -0.000095    -0.305394   119.613688
	   38 B(6,5,11)       =    119.732040    -0.000020    -0.089781   119.642258
	   39 B(7,13,17)      =    119.886328    -0.000065    -0.493090   119.393237
	   40 B(7,13,18)      =    122.891370     0.000041     0.085094   122.976464
	   41 B(7,14,15)      =    122.891409     0.000041     0.176169   123.067578
	   42 B(7,14,16)      =    119.886391    -0.000065    -0.597872   119.288519
	   43 B(13,7,14)      =    120.129698     0.000274     0.802505   120.932203
	   44 B(15,14,16)     =    117.078141     0.000027     0.498211   117.576352
	   45 B(17,13,18)     =    117.078243     0.000027     0.484415   117.562658
	   46 D(1,2,3,4)      =      0.446917    -0.000009    -1.225976    -0.779059
	   47 D(1,2,3,9)      =   -178.928796    -0.000017    -2.272931  -181.201727
	   48 D(1,6,5,4)      =      0.446823    -0.000014    -2.083309    -1.636486
	   49 D(1,6,5,11)     =   -178.928843    -0.000020    -2.843006  -181.771849
	   50 D(1,7,13,17)    =     10.762726    -0.000056    -6.789621     3.973104
	   51 D(1,7,13,18)    =   -173.730231    -0.000044    -5.362693  -179.092923
	   52 D(1,7,14,15)    =   -173.730256    -0.000057    -7.593332  -181.323588
	   53 D(1,7,14,16)    =     10.762691    -0.000069    -9.022468     1.740223
	   54 D(2,1,6,5)      =     -0.223756     0.000012     1.914772     1.691015
	   55 D(2,1,6,12)     =   -177.126344    -0.000024    -3.111828  -180.238173
	   56 *D(2,1,7,13)    =    -60.000026    -0.000000     0.000000   -60.000026
	   57 D(2,1,7,14)     =    119.999974     0.000013     2.244041   122.244015
	   58 D(2,3,4,5)      =     -0.225922     0.000007     1.057954     0.832032
	   59 D(2,3,4,10)     =    179.774078     0.000006     0.765704   180.539782
	   60 D(3,2,1,6)      =     -0.223897     0.000000    -0.259587    -0.483484
	   61 D(3,2,1,7)      =    179.776150     0.000012     2.058947   181.835097
	   62 D(3,4,5,6)      =     -0.225875     0.000005     0.618494     0.392619
	   63 D(3,4,5,11)     =    179.146753     0.000010     1.382033   180.528786
	   64 D(4,3,2,8)      =    177.373103     0.000024     3.480679   180.853782
	   65 D(4,5,6,12)     =    177.373164     0.000020     2.913465   180.286629
	   66 D(5,4,3,9)      =    179.146753     0.000014     2.110347   181.257099
	   67 D(5,6,1,7)      =    179.776197    -0.000001    -0.402531   179.373666
	   68 D(6,1,2,8)      =   -177.126330    -0.000034    -4.996638  -182.122968
	   69 D(6,1,7,13)     =    120.000021     0.000012     2.293623   122.293644
	   70 D(6,1,7,14)     =    -59.999979     0.000025     4.537664   -55.462315
	   71 D(6,5,4,10)     =    179.774125     0.000006     0.910728   180.684853
	   72 D(7,1,2,8)      =      2.873717    -0.000021    -2.678104     0.195613
	   73 D(7,1,6,12)     =      2.873609    -0.000036    -5.429131    -2.555522
	   74 D(8,2,3,9)      =     -2.002610     0.000016     2.433724     0.431114
	   75 D(9,3,4,10)     =     -0.853247     0.000013     1.818097     0.964849
	   76 D(10,4,5,11)    =     -0.853247     0.000012     1.674268     0.821020
	   77 D(11,5,6,12)    =     -2.002502     0.000015     2.153768     0.151266
	   78 D(13,7,14,15)   =      6.269744    -0.000044    -5.317129     0.952615
	   79 D(13,7,14,16)   =   -169.237309    -0.000056    -6.746265  -175.983574
	   80 D(14,7,13,17)   =   -169.237274    -0.000069    -9.066702  -178.303976
	   81 D(14,7,13,18)   =      6.269769    -0.000057    -7.639773    -1.370004
	 ---------------------------------------------------------------------------
	Successfully symmetrized geometry.

  ==> Convergence Check <==

  Measures of convergence in internal coordinates in au.
  Criteria marked as inactive (o), active & met (*), and active & unmet ( ).
  --------------------------------------------------------------------------------------------- ~
   Step     Total Energy     Delta E     MAX Force     RMS Force      MAX Disp      RMS Disp    ~
  --------------------------------------------------------------------------------------------- ~
    Convergence Criteria    1.00e-06 *    3.00e-04 *             o    1.20e-03 *             o  ~
  --------------------------------------------------------------------------------------------- ~
      1    -381.46389335   -3.81e+02      4.79e-03      1.65e-03 o    1.58e-01      4.79e-02 o  ~
  ---------------------------------------------------------------------------------------------

	Writing optimization data to binary file.
	Structure for next step:
	Cartesian Geometry (in Angstrom)
	    C    -0.0188005425   0.0093967086  -0.1764563604
	    C     0.0046565535   1.2260290819   0.5234938419
	    C     0.0241292848   1.2121362675   1.9164598130
	    C     0.0038282007  -0.0033322086   2.6062697784
	    C    -0.0185782748  -1.2127176974   1.9059343182
	    C    -0.0125639116  -1.2141921653   0.5129608564
	    C     0.0015160038   0.0151212207  -1.6502439775
	    H     0.0344806731   2.1718547888  -0.0135097123
	    H     0.0620853219   2.1496040229   2.4624380317
	    H     0.0102748752  -0.0082110106   3.6918608175
	    H    -0.0429695461  -2.1551416276   2.4435935083
	    H    -0.0346956337  -2.1549532880  -0.0327263605
	    N    -0.9734029679   0.6219539650  -2.3156188159
	    N     0.9708844455  -0.6252544839  -2.2931901946
	    H     1.0268226210  -0.6731135866  -3.3102234567
	    H     1.6720806115  -1.1340420391  -1.7580503955
	    H    -1.6911347118   1.1284604021  -1.7994862515
	    H    -1.0186100027   0.6464006498  -3.3325044405
			--------------------------
			 OPTKING Finished Execution 
			--------------------------

    Structure for next step:
    Molecular point group: c1
    Full point group: C1

    Geometry (in Angstrom), charge = 1, multiplicity = 1:

    C           -0.018800542460     0.009396708594    -0.176456360434
    C            0.004656553509     1.226029081855     0.523493841862
    C            0.024129284837     1.212136267501     1.916459812978
    C            0.003828200730    -0.003332208637     2.606269778393
    C           -0.018578274848    -1.212717697419     1.905934318223
    C           -0.012563911629    -1.214192165257     0.512960856376
    C            0.001516003822     0.015121220695    -1.650243977523
    H            0.034480673145     2.171854788808    -0.013509712263
    H            0.062085321930     2.149604022861     2.462438031725
    H            0.010274875184    -0.008211010611     3.691860817538
    H           -0.042969546099    -2.155141627554     2.443593508304
    H           -0.034695633723    -2.154953288002    -0.032726360542
    N           -0.973402967935     0.621953964954    -2.315618815903
    N            0.970884445515    -0.625254483901    -2.293190194586
    H            1.026822621031    -0.673113586640    -3.310223456685
    H            1.672080611474    -1.134042039148    -1.758050395546
    H           -1.691134711790     1.128460402074    -1.799486251452
    H           -1.018610002693     0.646400649827    -3.332504440466

gradient() will perform analytic gradient computation.

*** tstart() called on computer05
*** at Tue Dec 12 14:49:28 2017

   => Loading Basis Set <=

    Name: 6-31G*
    Role: ORBITAL
    Keyword: BASIS
    atoms 1-7         entry C          line   102 file /opt/acellera/miniconda3/share/psi4/basis/6-31gs.gbs 
    atoms 8-12, 15-18 entry H          line    35 file /opt/acellera/miniconda3/share/psi4/basis/6-31gs.gbs 
    atoms 13-14       entry N          line   119 file /opt/acellera/miniconda3/share/psi4/basis/6-31gs.gbs 


         ---------------------------------------------------------
                                   SCF
            by Justin Turney, Rob Parrish, and Andy Simmonett
                              RKS Reference
                        1 Threads,   3000 MiB Core
         ---------------------------------------------------------

  ==> Geometry <==

    Molecular point group: c1
    Full point group: C1

    Geometry (in Angstrom), charge = 1, multiplicity = 1:

       Center              X                  Y                   Z               Mass       
    ------------   -----------------  -----------------  -----------------  -----------------
           C         -0.018800542460     0.009396708594    -0.176456360434    12.000000000000
           C          0.004656553509     1.226029081855     0.523493841862    12.000000000000
           C          0.024129284837     1.212136267501     1.916459812978    12.000000000000
           C          0.003828200730    -0.003332208637     2.606269778393    12.000000000000
           C         -0.018578274848    -1.212717697419     1.905934318223    12.000000000000
           C         -0.012563911629    -1.214192165257     0.512960856376    12.000000000000
           C          0.001516003822     0.015121220695    -1.650243977523    12.000000000000
           H          0.034480673145     2.171854788808    -0.013509712263     1.007825032070
           H          0.062085321930     2.149604022861     2.462438031725     1.007825032070
           H          0.010274875184    -0.008211010611     3.691860817538     1.007825032070
           H         -0.042969546099    -2.155141627554     2.443593508304     1.007825032070
           H         -0.034695633723    -2.154953288002    -0.032726360542     1.007825032070
           N         -0.973402967935     0.621953964954    -2.315618815903    14.003074004780
           N          0.970884445515    -0.625254483901    -2.293190194586    14.003074004780
           H          1.026822621031    -0.673113586640    -3.310223456685     1.007825032070
           H          1.672080611474    -1.134042039148    -1.758050395546     1.007825032070
           H         -1.691134711790     1.128460402074    -1.799486251452     1.007825032070
           H         -1.018610002693     0.646400649827    -3.332504440466     1.007825032070

  Running in c1 symmetry.

  Rotational constants: A =      0.12177  B =      0.03828  C =      0.03231 [cm^-1]
  Rotational constants: A =   3650.70974  B =   1147.56141  C =    968.52211 [MHz]
  Nuclear repulsion =  416.435318530233303

  Charge       = 1
  Multiplicity = 1
  Electrons    = 64
  Nalpha       = 32
  Nbeta        = 32

  ==> Algorithm <==

  SCF Algorithm Type is DF.
  DIIS enabled.
  MOM disabled.
  Fractional occupation disabled.
  Guess Type is READ.
  Energy threshold   = 1.00e-08
  Density threshold  = 1.00e-08
  Integral threshold = 0.00e+00

  ==> Primary Basis <==

  Basis Set: 6-31G*
    Blend: 6-31G*
    Number of shells: 72
    Number of basis function: 153
    Number of Cartesian functions: 153
    Spherical Harmonics?: false
    Max angular momentum: 2

  ==> DFT Potential <==

   => B3LYP Composite Functional <= 

    B3LYP Hybrid-GGA Exchange-Correlation Functional (VWN1-RPA)

    P.J. Stephens et. al., J. Phys. Chem., 98, 11623-11627, 1994

    Points   =           5000
    Deriv    =              1
    GGA      =           TRUE
    Meta     =          FALSE

    X_LRC        =          FALSE
    X_Hybrid     =           TRUE
    X_Alpha      =   2.000000E-01
    X_Omega      =   0.000000E+00
    C_LRC        =          FALSE
    C_Hybrid     =          FALSE
    C_Alpha      =   0.000000E+00
    C_Omega      =   0.000000E+00

   => Exchange Functionals <=

    0.8000    B3_X
    0.2000      HF 

   => Correlation Functionals <=

    0.1900 VWN3RPA_C
    0.8100   LYP_C

   => Molecular Quadrature <=

    Radial Scheme    =       TREUTLER
    Pruning Scheme   =           FLAT
    Nuclear Scheme   =       TREUTLER

    BS radius alpha  =              1
    Pruning alpha    =              1
    Radial Points    =             75
    Spherical Points =            302
    Total Points     =         397114
    Total Blocks     =            358
    Max Points       =           4937
    Max Functions    =            151

   => -D3ZERO: Empirical Dispersion <=

    Grimme's -D3 (zero-damping) Dispersion Correction
    Grimme S.; Antony J.; Ehrlich S.; Krieg H. (2010), J. Chem. Phys., 132: 154104

        S6 =   1.000000E+00
        S8 =   1.703000E+00
       SR6 =   1.261000E+00
    ALPHA6 =   1.400000E+01

   => Loading Basis Set <=

    Name: (6-31G* AUX)
    Role: JKFIT
    Keyword: DF_BASIS_SCF
    atoms 1-7         entry C          line   120 file /opt/acellera/miniconda3/share/psi4/basis/cc-pvdz-jkfit.gbs 
    atoms 8-12, 15-18 entry H          line    50 file /opt/acellera/miniconda3/share/psi4/basis/cc-pvdz-jkfit.gbs 
    atoms 13-14       entry N          line   170 file /opt/acellera/miniconda3/share/psi4/basis/cc-pvdz-jkfit.gbs 

  Reading orbitals from file 180, no projection.

  ==> Pre-Iterations <==

   -------------------------------------------------------
    Irrep   Nso     Nmo     Nalpha   Nbeta   Ndocc  Nsocc
   -------------------------------------------------------
     A        153     153       0       0       0       0
   -------------------------------------------------------
    Total     153     153      32      32      32       0
   -------------------------------------------------------

  ==> Integral Setup <==

  ==> DFJK: Density-Fitted J/K Matrices <==

    J tasked:                  Yes
    K tasked:                  Yes
    wK tasked:                  No
    OpenMP threads:              1
    Integrals threads:           1
    Memory (MB):              2250
    Algorithm:                Core
    Integral Cache:           NONE
    Schwarz Cutoff:          1E-12
    Fitting Condition:       1E-12

   => Auxiliary Basis Set <=

  Basis Set: (6-31G* AUX)
    Blend: CC-PVDZ-JKFIT
    Number of shells: 297
    Number of basis function: 954
    Number of Cartesian functions: 954
    Spherical Harmonics?: false
    Max angular momentum: 3

  Minimum eigenvalue in the overlap matrix is 4.8660014974E-04.
  Using Symmetric Orthogonalization.

  SCF Guess: Orbitals guess was supplied from a previous computation.

  ==> Iterations <==

                           Total Energy        Delta E     RMS |[F,P]|

   @DF-RKS iter   0:  -381.45162061167446   -3.81452e+02   6.47907e-04 
   @DF-RKS iter   1:  -381.46699746817438   -1.53769e-02   7.52650e-05 
   @DF-RKS iter   2:  -381.46700493748881   -7.46931e-06   8.78705e-05 DIIS
   @DF-RKS iter   3:  -381.46709828565406   -9.33482e-05   2.90763e-05 DIIS
   @DF-RKS iter   4:  -381.46710783144681   -9.54579e-06   1.15108e-05 DIIS
   @DF-RKS iter   5:  -381.46710931309303   -1.48165e-06   2.56526e-06 DIIS
   @DF-RKS iter   6:  -381.46710939175836   -7.86653e-08   6.96049e-07 DIIS
   @DF-RKS iter   7:  -381.46710939664428   -4.88592e-09   2.00660e-07 DIIS
   @DF-RKS iter   8:  -381.46710939702291   -3.78634e-10   8.71223e-08 DIIS
   @DF-RKS iter   9:  -381.46710939710152   -7.86144e-11   1.73894e-08 DIIS
   @DF-RKS iter  10:  -381.46710939710499   -3.46745e-12   4.45473e-09 DIIS

  ==> Post-Iterations <==

    Orbital Energies (a.u.)
    -----------------------

    Doubly Occupied:                                                      

       1A    -14.573597     2A    -14.573446     3A    -10.500651  
       4A    -10.370846     5A    -10.352295     6A    -10.352280  
       7A    -10.337344     8A    -10.336815     9A    -10.336528  
      10A     -1.186843    11A     -1.094688    12A     -1.011459  
      13A     -0.924152    14A     -0.898244    15A     -0.844235  
      16A     -0.786489    17A     -0.769133    18A     -0.747802  
      19A     -0.729910    20A     -0.687707    21A     -0.667838  
      22A     -0.622138    23A     -0.620424    24A     -0.581895  
      25A     -0.575751    26A     -0.570248    27A     -0.516613  
      28A     -0.501331    29A     -0.494548    30A     -0.475463  
      31A     -0.407335    32A     -0.401731  

    Virtual:                                                              

      33A     -0.205027    34A     -0.154118    35A     -0.148655  
      36A     -0.112538    37A     -0.067590    38A     -0.066633  
      39A     -0.038780    40A     -0.034620    41A      0.007557  
      42A      0.016744    43A      0.022405    44A      0.057235  
      45A      0.061305    46A      0.075409    47A      0.135793  
      48A      0.145906    49A      0.161390    50A      0.170530  
      51A      0.200360    52A      0.231347    53A      0.294795  
      54A      0.344355    55A      0.357189    56A      0.383273  
      57A      0.387126    58A      0.398719    59A      0.410807  
      60A      0.425642    61A      0.447416    62A      0.447693  
      63A      0.450453    64A      0.468033    65A      0.474324  
      66A      0.478810    67A      0.484360    68A      0.509104  
      69A      0.513220    70A      0.537987    71A      0.541134  
      72A      0.573184    73A      0.595374    74A      0.649894  
      75A      0.658709    76A      0.678876    77A      0.679406  
      78A      0.697383    79A      0.706744    80A      0.709347  
      81A      0.729630    82A      0.756525    83A      0.777682  
      84A      0.795590    85A      0.812417    86A      0.833912  
      87A      0.851429    88A      0.938347    89A      0.970598  
      90A      1.002532    91A      1.009005    92A      1.027155  
      93A      1.035709    94A      1.074557    95A      1.147101  
      96A      1.194600    97A      1.215399    98A      1.281064  
      99A      1.294859   100A      1.320755   101A      1.322752  
     102A      1.342520   103A      1.358824   104A      1.376023  
     105A      1.431711   106A      1.448489   107A      1.491483  
     108A      1.591356   109A      1.638089   110A      1.648664  
     111A      1.670074   112A      1.738556   113A      1.760981  
     114A      1.794806   115A      1.828747   116A      1.854054  
     117A      1.899216   118A      1.911507   119A      1.961839  
     120A      1.981643   121A      2.000221   122A      2.010402  
     123A      2.041832   124A      2.095958   125A      2.123816  
     126A      2.136693   127A      2.154671   128A      2.169023  
     129A      2.225126   130A      2.263292   131A      2.369901  
     132A      2.375809   133A      2.419630   134A      2.450971  
     135A      2.497582   136A      2.563621   137A      2.567219  
     138A      2.591621   139A      2.599928   140A      2.629376  
     141A      2.727455   142A      2.884043   143A      2.946950  
     144A      3.260173   145A      3.632874   146A      3.644961  
     147A      3.934074   148A      3.962816   149A      3.968782  
     150A      4.085552   151A      4.182975   152A      4.259528  
     153A      4.548979  

    Final Occupation by Irrep:
              A 
    DOCC [    32 ]

  Energy converged.

  @DF-RKS Final Energy:  -381.46710939710499

   => Energetics <=

    Nuclear Repulsion Energy =            416.4353185302333031
    One-Electron Energy =               -1328.1642368842101405
    Two-Electron Energy =                 574.6698601066680112
    DFT Exchange-Correlation Energy =     -44.3961436297961853
    Empirical Dispersion Energy =          -0.0119075200000000
    PCM Polarization Energy =               0.0000000000000000
    EFP Energy =                            0.0000000000000000
    Total Energy =                       -381.4671093971050482



Properties will be evaluated at   0.000000,   0.000000,   0.000000 Bohr

Properties computed using the SCF density matrix

  Nuclear Dipole Moment: (a.u.)
     X:    -0.1780      Y:     0.2691      Z:    -0.1507

  Electronic Dipole Moment: (a.u.)
     X:     0.1804      Y:    -0.2716      Z:    -2.2791

  Dipole Moment: (a.u.)
     X:     0.0024      Y:    -0.0025      Z:    -2.4298     Total:     2.4298

  Dipole Moment: (Debye)
     X:     0.0061      Y:    -0.0063      Z:    -6.1759     Total:     6.1759


*** tstop() called on computer05 at Tue Dec 12 14:50:42 2017
Module time:
	user time   =      73.00 seconds =       1.22 minutes
	system time =       1.07 seconds =       0.02 minutes
	total time  =         74 seconds =       1.23 minutes
Total time:
	user time   =     185.97 seconds =       3.10 minutes
	system time =       2.49 seconds =       0.04 minutes
	total time  =        189 seconds =       3.15 minutes

*** tstart() called on computer05
*** at Tue Dec 12 14:50:42 2017


         ------------------------------------------------------------
                                   SCF GRAD                          
                          Rob Parrish, Justin Turney,                
                       Andy Simmonett, and Alex Sokolov              
         ------------------------------------------------------------

  ==> Geometry <==

    Molecular point group: c1
    Full point group: C1

    Geometry (in Angstrom), charge = 1, multiplicity = 1:

       Center              X                  Y                   Z               Mass       
    ------------   -----------------  -----------------  -----------------  -----------------
           C         -0.018800542460     0.009396708594    -0.176456360434    12.000000000000
           C          0.004656553509     1.226029081855     0.523493841862    12.000000000000
           C          0.024129284837     1.212136267501     1.916459812978    12.000000000000
           C          0.003828200730    -0.003332208637     2.606269778393    12.000000000000
           C         -0.018578274848    -1.212717697419     1.905934318223    12.000000000000
           C         -0.012563911629    -1.214192165257     0.512960856376    12.000000000000
           C          0.001516003822     0.015121220695    -1.650243977523    12.000000000000
           H          0.034480673145     2.171854788808    -0.013509712263     1.007825032070
           H          0.062085321930     2.149604022861     2.462438031725     1.007825032070
           H          0.010274875184    -0.008211010611     3.691860817538     1.007825032070
           H         -0.042969546099    -2.155141627554     2.443593508304     1.007825032070
           H         -0.034695633723    -2.154953288002    -0.032726360542     1.007825032070
           N         -0.973402967935     0.621953964954    -2.315618815903    14.003074004780
           N          0.970884445515    -0.625254483901    -2.293190194586    14.003074004780
           H          1.026822621031    -0.673113586640    -3.310223456685     1.007825032070
           H          1.672080611474    -1.134042039148    -1.758050395546     1.007825032070
           H         -1.691134711790     1.128460402074    -1.799486251452     1.007825032070
           H         -1.018610002693     0.646400649827    -3.332504440466     1.007825032070

  Nuclear repulsion =  416.435318530233303

  ==> Basis Set <==

  Basis Set: 6-31G*
    Blend: 6-31G*
    Number of shells: 72
    Number of basis function: 153
    Number of Cartesian functions: 153
    Spherical Harmonics?: false
    Max angular momentum: 2

  ==> DFJKGrad: Density-Fitted SCF Gradients <==

    Gradient:                    1
    J tasked:                  Yes
    K tasked:                  Yes
    wK tasked:                  No
    OpenMP threads:              1
    Integrals threads:           1
    Memory (MB):              2250
    Schwarz Cutoff:          0E+00
    Fitting Condition:       1E-12

   => Auxiliary Basis Set <=

  Basis Set: (6-31G* AUX)
    Blend: CC-PVDZ-JKFIT
    Number of shells: 297
    Number of basis function: 954
    Number of Cartesian functions: 954
    Spherical Harmonics?: false
    Max angular momentum: 3

  ==> DFT Potential <==

   => B3LYP Composite Functional <= 

    B3LYP Hybrid-GGA Exchange-Correlation Functional (VWN1-RPA)

    P.J. Stephens et. al., J. Phys. Chem., 98, 11623-11627, 1994

    Points   =           5000
    Deriv    =              1
    GGA      =           TRUE
    Meta     =          FALSE

    X_LRC        =          FALSE
    X_Hybrid     =           TRUE
    X_Alpha      =   2.000000E-01
    X_Omega      =   0.000000E+00
    C_LRC        =          FALSE
    C_Hybrid     =          FALSE
    C_Alpha      =   0.000000E+00
    C_Omega      =   0.000000E+00

   => Exchange Functionals <=

    0.8000    B3_X
    0.2000      HF 

   => Correlation Functionals <=

    0.1900 VWN3RPA_C
    0.8100   LYP_C

   => Molecular Quadrature <=

    Radial Scheme    =       TREUTLER
    Pruning Scheme   =           FLAT
    Nuclear Scheme   =       TREUTLER

    BS radius alpha  =              1
    Pruning alpha    =              1
    Radial Points    =             75
    Spherical Points =            302
    Total Points     =         397114
    Total Blocks     =            358
    Max Points       =           4937
    Max Functions    =            151


  -Total Gradient:
     Atom            X                  Y                   Z
    ------   -----------------  -----------------  -----------------
       1       -0.003803079819    -0.000862379335    -0.001548557787
       2        0.002659881812    -0.001474654956     0.000703180166
       3        0.000108284243    -0.000124793754    -0.000402817383
       4       -0.000164426751    -0.000196960481     0.000340554548
       5        0.000032874579     0.000109569887    -0.000063664004
       6       -0.000845749436     0.000997146709     0.000762913008
       7        0.002953011385     0.004575050009     0.002854317531
       8        0.000009841800     0.000938945864    -0.000282508804
       9        0.000239643194     0.000145430644     0.000123467976
      10        0.000038720067    -0.000004870183     0.000040594094
      11       -0.000224678244     0.000002991542     0.000025430895
      12        0.000333315484    -0.000742516979    -0.000297098977
      13        0.000108847022    -0.006610880413    -0.000332034582
      14       -0.000725363684     0.003950046073     0.000535422310
      15        0.000515843407     0.001536469619    -0.004900580687
      16        0.002021157814    -0.004537691788     0.002990887297
      17       -0.002874263344     0.004316803900     0.003022404923
      18       -0.000389720723    -0.002012483891    -0.003568375818


*** tstop() called on computer05 at Tue Dec 12 14:51:05 2017
Module time:
	user time   =      21.60 seconds =       0.36 minutes
	system time =       0.40 seconds =       0.01 minutes
	total time  =         23 seconds =       0.38 minutes
Total time:
	user time   =     207.57 seconds =       3.46 minutes
	system time =       2.89 seconds =       0.05 minutes
	total time  =        212 seconds =       3.53 minutes

			-----------------------------------------
			 OPTKING 2.0: for geometry optimizations 
			  - R.A. King,  Bethel University        
			-----------------------------------------
	At level 1: Red. Int., RFO, no backsteps, dynamic trust

	Previous internal coordinate definitions found.
	---Fragment 1 Geometry and Gradient---
	 C          -0.0355278764        0.0177572058       -0.3334541956
	 C           0.0087996109        2.3168591957        0.9892599934
	 C           0.0455977401        2.2906055813        3.6215841912
	 C           0.0072342510       -0.0062969617        4.9251361096
	 C          -0.0351078515       -2.2917043246        3.6016938887
	 C          -0.0237423521       -2.2944906650        0.9693555354
	 C           0.0028648320        0.0285749659       -3.1185091700
	 H           0.0651590291        4.1042107512       -0.0255296563
	 H           0.1173242553        4.0621628974        4.6533334992
	 H           0.0194167001       -0.0155165613        6.9766058659
	 H          -0.0812006742       -4.0726274537        4.6177225108
	 H          -0.0655652457       -4.0722715435       -0.0618438587
	 N          -1.8394650263        1.1753226610       -4.3758853902
	 N           1.8347057087       -1.1815597379       -4.3335014384
	 H           1.9404135408       -1.2720003351       -6.2554157718
	 H           3.1597744278       -2.1430288772       -3.3222337754
	 H          -3.1957814591        2.1324811117       -3.4005361951
	 H          -1.9248939413        1.2215202003       -6.2975207291
	            -0.0038030798       -0.0008623793       -0.0015485578
	             0.0026598818       -0.0014746550        0.0007031802
	             0.0001082842       -0.0001247938       -0.0004028174
	            -0.0001644268       -0.0001969605        0.0003405545
	             0.0000328746        0.0001095699       -0.0000636640
	            -0.0008457494        0.0009971467        0.0007629130
	             0.0029530114        0.0045750500        0.0028543175
	             0.0000098418        0.0009389459       -0.0002825088
	             0.0002396432        0.0001454306        0.0001234680
	             0.0000387201       -0.0000048702        0.0000405941
	            -0.0002246782        0.0000029915        0.0000254309
	             0.0003333155       -0.0007425170       -0.0002970990
	             0.0001088470       -0.0066108804       -0.0003320346
	            -0.0007253637        0.0039500461        0.0005354223
	             0.0005158434        0.0015364696       -0.0049005807
	             0.0020211578       -0.0045376918        0.0029908873
	            -0.0028742633        0.0043168039        0.0030224049
	            -0.0003897207       -0.0020124839       -0.0035683758

	---Fragment 1 Intrafragment Coordinates---
	 - Coordinate -           - BOHR/RAD -       - ANG/DEG -
	 R(1,2)           =         2.652811	       1.403807
	 R(1,6)           =         2.654043	       1.404459
	 R(1,7)           =         2.785341	       1.473939
	 R(2,3)           =         2.632712	       1.393171
	 R(2,8)           =         2.056113	       1.088048
	 R(3,4)           =         2.641303	       1.397717
	 R(3,9)           =         2.051357	       1.085532
	 R(4,5)           =         2.641284	       1.397707
	 R(4,10)          =         2.051527	       1.085621
	 R(5,6)           =         2.632364	       1.392987
	 R(5,11)          =         2.050884	       1.085281
	 R(6,12)          =         2.055633	       1.087794
	 R(7,13)          =         2.508028	       1.327191
	 R(7,14)          =         2.509238	       1.327831
	 R(13,17)         =         1.925371	       1.018862
	 R(13,18)         =         1.924088	       1.018184
	 R(14,15)         =         1.926943	       1.019694
	 R(14,16)         =         1.924290	       1.018290
	 B(1,2,3)         =         2.083031	     119.348868
	 B(1,2,8)         =         2.103370	     120.514236
	 B(1,6,5)         =         2.082807	     119.336064
	 B(1,6,12)        =         2.102638	     120.472271
	 B(1,7,13)        =         2.086262	     119.533985
	 B(1,7,14)        =         2.085581	     119.495011
	 B(2,1,6)         =         2.106242	     120.678802
	 B(2,1,7)         =         2.088586	     119.667182
	 B(2,3,4)         =         2.096616	     120.127251
	 B(2,3,9)         =         2.088357	     119.654058
	 B(3,2,8)         =         2.096429	     120.116533
	 B(3,4,5)         =         2.100628	     120.357139
	 B(3,4,10)        =         2.091320	     119.823790
	 B(4,3,9)         =         2.098188	     120.217335
	 B(4,5,6)         =         2.096593	     120.125913
	 B(4,5,11)        =         2.098439	     120.231690
	 B(5,4,10)        =         2.091226	     119.818428
	 B(5,6,12)        =         2.097248	     120.163439
	 B(6,1,7)         =         2.087653	     119.613688
	 B(6,5,11)        =         2.088151	     119.642258
	 B(7,13,17)       =         2.083805	     119.393237
	 B(7,13,18)       =         2.146344	     122.976464
	 B(7,14,15)       =         2.147934	     123.067578
	 B(7,14,16)       =         2.081977	     119.288519
	 B(13,7,14)       =         2.110665	     120.932203
	 B(15,14,16)      =         2.052094	     117.576352
	 B(17,13,18)      =         2.051855	     117.562658
	 D(1,2,3,4)       =        -0.013597	      -0.779059
	 D(1,2,3,9)       =         3.120619	     178.798273
	 D(1,6,5,4)       =        -0.028562	      -1.636486
	 D(1,6,5,11)      =         3.110668	     178.228151
	 D(1,7,13,17)     =         0.069344	       3.973104
	 D(1,7,13,18)     =        -3.125761	    -179.092923
	 D(1,7,14,15)     =         3.118492	     178.676412
	 D(1,7,14,16)     =         0.030373	       1.740223
	 D(2,1,6,5)       =         0.029514	       1.691015
	 D(2,1,6,12)      =         3.137436	     179.761827
	*D(2,1,7,13)      =        -1.047198	     -60.000026
	 D(2,1,7,14)      =         2.133561	     122.244015
	 D(2,3,4,5)       =         0.014522	       0.832032
	 D(2,3,4,10)      =        -3.132172	    -179.460218
	 D(3,2,1,6)       =        -0.008438	      -0.483484
	 D(3,2,1,7)       =        -3.109564	    -178.164903
	 D(3,4,5,6)       =         0.006852	       0.392619
	 D(3,4,5,11)      =        -3.132364	    -179.471214
	 D(4,3,2,8)       =        -3.126691	    -179.146218
	 D(4,5,6,12)      =        -3.136590	    -179.713371
	 D(5,4,3,9)       =        -3.119652	    -178.742901
	 D(5,6,1,7)       =         3.130661	     179.373666
	 D(6,1,2,8)       =         3.104540	     177.877032
	 D(6,1,7,13)      =         2.134427	     122.293644
	 D(6,1,7,14)      =        -0.968000	     -55.462315
	 D(6,5,4,10)      =        -3.129640	    -179.315147
	 D(7,1,2,8)       =         0.003414	       0.195613
	 D(7,1,6,12)      =        -0.044602	      -2.555522
	 D(8,2,3,9)       =         0.007524	       0.431114
	 D(9,3,4,10)      =         0.016840	       0.964849
	 D(10,4,5,11)     =         0.014330	       0.821020
	 D(11,5,6,12)     =         0.002640	       0.151266
	 D(13,7,14,15)    =         0.016626	       0.952615
	 D(13,7,14,16)    =        -3.071493	    -175.983574
	 D(14,7,13,17)    =        -3.111991	    -178.303976
	 D(14,7,13,18)    =        -0.023911	      -1.370004

	Current energy   :      -381.4671093971

	Energy change for the previous step:
		Projected    :        -0.0005737769
		Actual       :        -0.0032160478
	Energy ratio indicates good step: Trust radius increased to 1.000e+00.


	Performing BFGS update.
	Previous computed or guess Hessian on step 1.
	Steps to be used in Hessian update: 1
	Taking RFO optimization step.
	Going to follow RFO solution 1.
	Using RFO vector 1.
	Norm of target step-size    0.32173
	Projected energy change by RFO approximation:        -0.0007353639

	Back-transformation to cartesian coordinates...
	Could not converge backtransformation.
	Using first guess instead.

	Back-transformation to cartesian coordinates to adjust frozen coordinates...
	Successfully converged to displaced geometry.

	--- Internal Coordinate Step in ANG or DEG, aJ/ANG or AJ/DEG ---
	 ---------------------------------------------------------------------------
	   Coordinate                Previous        Force       Change         New 
	   ----------                --------       ------       ------       ------
	    1 R(1,2)          =      1.403807     0.000624    -0.000304     1.403504
	    2 R(1,6)          =      1.404459    -0.001791    -0.000434     1.404025
	    3 R(1,7)          =      1.473939     0.004726     0.002373     1.476312
	    4 R(2,3)          =      1.393171    -0.000085     0.000361     1.393532
	    5 R(2,8)          =      1.088048    -0.007876    -0.001314     1.086734
	    6 R(3,4)          =      1.397717    -0.000291    -0.000050     1.397667
	    7 R(3,9)          =      1.085532    -0.001614    -0.000209     1.085322
	    8 R(4,5)          =      1.397707     0.001952     0.000333     1.398040
	    9 R(4,10)         =      1.085621    -0.000335    -0.000028     1.085593
	   10 R(5,6)          =      1.392987    -0.000446     0.000341     1.393329
	   11 R(5,11)         =      1.085281    -0.000124     0.000138     1.085419
	   12 R(6,12)         =      1.087794    -0.006464    -0.001057     1.086737
	   13 R(7,13)         =      1.327191    -0.006480    -0.001097     1.326094
	   14 R(7,14)         =      1.327831    -0.012633    -0.001668     1.326163
	   15 R(13,17)        =      1.018862    -0.046965    -0.002611     1.016252
	   16 R(13,18)        =      1.018184    -0.029110     0.000889     1.019073
	   17 R(14,15)        =      1.019694    -0.039907    -0.002138     1.017556
	   18 R(14,16)        =      1.018290    -0.043105    -0.000086     1.018204
	   19 B(1,2,3)        =    119.348868    -0.000022    -0.124239   119.224629
	   20 B(1,2,8)        =    120.514236    -0.000006    -0.063206   120.451030
	   21 B(1,6,5)        =    119.336064    -0.000028    -0.163445   119.172619
	   22 B(1,6,12)       =    120.472271     0.000005    -0.037573   120.434698
	   23 B(1,7,13)       =    119.533985    -0.000070    -0.340381   119.193604
	   24 B(1,7,14)       =    119.495011    -0.000065    -0.355053   119.139958
	   25 B(2,1,6)        =    120.678802     0.000047     0.242717   120.921519
	   26 B(2,1,7)        =    119.667182    -0.000033    -0.205473   119.461709
	   27 B(2,3,4)        =    120.127251    -0.000015    -0.054860   120.072391
	   28 B(2,3,9)        =    119.654058     0.000005     0.012369   119.666427
	   29 B(3,2,8)        =    120.116533     0.000028     0.195717   120.312250
	   30 B(3,4,5)        =    120.357139     0.000025     0.110663   120.467802
	   31 B(3,4,10)       =    119.823790    -0.000013    -0.053816   119.769973
	   32 B(4,3,9)        =    120.217335     0.000010     0.040198   120.257532
	   33 B(4,5,6)        =    120.125913    -0.000007    -0.020184   120.105729
	   34 B(4,5,11)       =    120.231690     0.000005     0.021270   120.252960
	   35 B(5,4,10)       =    119.818428    -0.000012    -0.056824   119.761605
	   36 B(5,6,12)       =    120.163439     0.000023     0.187635   120.351074
	   37 B(6,1,7)        =    119.613688    -0.000015    -0.160498   119.453190
	   38 B(6,5,11)       =    119.642258     0.000002    -0.001098   119.641161
	   39 B(7,13,17)      =    119.393237    -0.000019    -0.491393   118.901844
	   40 B(7,13,18)      =    122.976464     0.000077     0.429371   123.405836
	   41 B(7,14,15)      =    123.067578     0.000056     0.392039   123.459617
	   42 B(7,14,16)      =    119.288519     0.000002    -0.419551   118.868968
	   43 B(13,7,14)      =    120.932203     0.000134     0.694587   121.626790
	   44 B(15,14,16)     =    117.576352    -0.000055     0.094710   117.671063
	   45 B(17,13,18)     =    117.562658    -0.000058     0.071204   117.633862
	   46 D(1,2,3,4)      =     -0.779059     0.000005     1.119062     0.340003
	   47 D(1,2,3,9)      =    178.798273     0.000004     0.848591   179.646864
	   48 D(1,6,5,4)      =     -1.636486     0.000002     0.176021    -1.460465
	   49 D(1,6,5,11)     =    178.228151     0.000002     0.170632   178.398783
	   50 D(1,7,13,17)    =      3.973104    -0.000028    -5.964190    -1.991086
	   51 D(1,7,13,18)    =   -179.092923    -0.000027    -5.747740  -184.840663
	   52 D(1,7,14,15)    =    178.676412    -0.000022    -4.953413   173.722999
	   53 D(1,7,14,16)    =      1.740223    -0.000036    -7.796066    -6.055843
	   54 D(2,1,6,5)      =      1.691015     0.000002     0.632201     2.323216
	   55 D(2,1,6,12)     =    179.761827     0.000001     0.223631   179.985458
	   56 *D(2,1,7,13)    =    -60.000026    -0.000000     0.000000   -60.000026
	   57 D(2,1,7,14)     =    122.244015    -0.000001     0.008344   122.252359
	   58 D(2,3,4,5)      =      0.832032    -0.000002    -0.331867     0.500164
	   59 D(2,3,4,10)     =   -179.460218    -0.000002    -0.326728  -179.786946
	   60 D(3,2,1,6)      =     -0.483484    -0.000005    -1.279853    -1.763338
	   61 D(3,2,1,7)      =   -178.164903     0.000003     1.075648  -177.089255
	   62 D(3,4,5,6)      =      0.392619    -0.000001    -0.323360     0.069259
	   63 D(3,4,5,11)     =   -179.471214    -0.000001    -0.317906  -179.789121
	   64 D(4,3,2,8)      =   -179.146218     0.000003     0.745345  -178.400873
	   65 D(4,5,6,12)     =   -179.713371     0.000002     0.588663  -179.124708
	   66 D(5,4,3,9)      =   -178.742901    -0.000001    -0.059661  -178.802562
	   67 D(5,6,1,7)      =    179.373666    -0.000007    -1.724139   177.649527
	   68 D(6,1,2,8)      =    177.877032    -0.000002    -0.901283   176.975749
	   69 D(6,1,7,13)     =    122.293644     0.000008     2.311094   124.604738
	   70 D(6,1,7,14)     =    -55.462315     0.000007     2.319437   -53.142877
	   71 D(6,5,4,10)     =   -179.315147    -0.000002    -0.328508  -179.643655
	   72 D(7,1,2,8)      =      0.195613     0.000006     1.454218     1.649831
	   73 D(7,1,6,12)     =     -2.555522    -0.000007    -2.132709    -4.688231
	   74 D(8,2,3,9)      =      0.431114     0.000002     0.474874     0.905988
	   75 D(9,3,4,10)     =      0.964849    -0.000001    -0.054522     0.910328
	   76 D(10,4,5,11)    =      0.821020    -0.000002    -0.323054     0.497966
	   77 D(11,5,6,12)    =      0.151266     0.000002     0.583274     0.734540
	   78 D(13,7,14,15)   =      0.952615    -0.000022    -4.920342    -3.967727
	   79 D(13,7,14,16)   =   -175.983574    -0.000036    -7.762995  -183.746569
	   80 D(14,7,13,17)   =   -178.303976    -0.000027    -5.997592  -184.301568
	   81 D(14,7,13,18)   =     -1.370004    -0.000026    -5.781142    -7.151145
	 ---------------------------------------------------------------------------
	Successfully symmetrized geometry.

  ==> Convergence Check <==

  Measures of convergence in internal coordinates in au.
  Criteria marked as inactive (o), active & met (*), and active & unmet ( ).
  ---------------------------------------------------------------------------------------------
   Step     Total Energy     Delta E     MAX Force     RMS Force      MAX Disp      RMS Disp   
  ---------------------------------------------------------------------------------------------
    Convergence Criteria    1.00e-06 *    3.00e-04 *             o    1.20e-03 *             o
  ---------------------------------------------------------------------------------------------
      2    -381.46710940   -3.22e-03      5.70e-03      1.28e-03 o    1.36e-01      3.57e-02 o  ~
  ---------------------------------------------------------------------------------------------

	Writing optimization data to binary file.
	Structure for next step:
	Cartesian Geometry (in Angstrom)
	    C    -0.0450483962   0.0071553649  -0.1778302874
	    C    -0.0044390667   1.2249276536   0.5187353853
	    C     0.0214735574   1.2112785411   1.9119595489
	    C     0.0141529286  -0.0048872867   2.6006983511
	    C    -0.0085898480  -1.2153529895   1.9015764057
	    C    -0.0227128301  -1.2175830290   0.5083211201
	    C    -0.0073857249   0.0132113388  -1.6536496174
	    H     0.0273077861   2.1674881059  -0.0212301169
	    H     0.0587279548   2.1486425212   2.4577483201
	    H     0.0309324804  -0.0097361515   3.6861512548
	    H    -0.0176610817  -2.1577620205   2.4400169894
	    H    -0.0547244490  -2.1558823052  -0.0390066142
	    N    -0.9643965533   0.6419077337  -2.3225272877
	    N     0.9578009174  -0.6483505217  -2.2777166809
	    H     0.9951778889  -0.7656169744  -3.2878020412
	    H     1.7033856069  -1.0672865601  -1.7251444292
	    H    -1.7200743454   1.0801162469  -1.8032087096
	    H    -0.9639238253   0.7477293327  -3.3360905908
			--------------------------
			 OPTKING Finished Execution 
			--------------------------

    Structure for next step:
    Molecular point group: c1
    Full point group: C1

    Geometry (in Angstrom), charge = 1, multiplicity = 1:

    C           -0.045048396215     0.007155364881    -0.177830287392
    C           -0.004439066652     1.224927653568     0.518735385293
    C            0.021473557416     1.211278541148     1.911959548887
    C            0.014152928611    -0.004887286693     2.600698351127
    C           -0.008589848041    -1.215352989471     1.901576405726
    C           -0.022712830062    -1.217583028985     0.508321120066
    C           -0.007385724882     0.013211338758    -1.653649617379
    H            0.027307786073     2.167488105887    -0.021230116944
    H            0.058727954812     2.148642521215     2.457748320067
    H            0.030932480398    -0.009736151502     3.686151254797
    H           -0.017661081738    -2.157762020521     2.440016989413
    H           -0.054724449005    -2.155882305201    -0.039006614224
    N           -0.964396553251     0.641907733703    -2.322527287729
    N            0.957800917355    -0.648350521745    -2.277716680892
    H            0.995177888921    -0.765616974436    -3.287802041200
    H            1.703385606916    -1.067286560133    -1.725144429188
    H           -1.720074345362     1.080116246861    -1.803208709638
    H           -0.963923825295     0.747729332667    -3.336090590789

gradient() will perform analytic gradient computation.

*** tstart() called on computer05
*** at Tue Dec 12 14:51:05 2017

   => Loading Basis Set <=

    Name: 6-31G*
    Role: ORBITAL
    Keyword: BASIS
    atoms 1-7         entry C          line   102 file /opt/acellera/miniconda3/share/psi4/basis/6-31gs.gbs 
    atoms 8-12, 15-18 entry H          line    35 file /opt/acellera/miniconda3/share/psi4/basis/6-31gs.gbs 
    atoms 13-14       entry N          line   119 file /opt/acellera/miniconda3/share/psi4/basis/6-31gs.gbs 


         ---------------------------------------------------------
                                   SCF
            by Justin Turney, Rob Parrish, and Andy Simmonett
                              RKS Reference
                        1 Threads,   3000 MiB Core
         ---------------------------------------------------------

  ==> Geometry <==

    Molecular point group: c1
    Full point group: C1

    Geometry (in Angstrom), charge = 1, multiplicity = 1:

       Center              X                  Y                   Z               Mass       
    ------------   -----------------  -----------------  -----------------  -----------------
           C         -0.045048396215     0.007155364881    -0.177830287392    12.000000000000
           C         -0.004439066652     1.224927653568     0.518735385293    12.000000000000
           C          0.021473557416     1.211278541148     1.911959548887    12.000000000000
           C          0.014152928611    -0.004887286693     2.600698351127    12.000000000000
           C         -0.008589848041    -1.215352989471     1.901576405726    12.000000000000
           C         -0.022712830062    -1.217583028985     0.508321120066    12.000000000000
[...]
	             0.0000032105       -0.0000003867       -0.0000015611
	            -0.0000193680       -0.0000047194       -0.0000007159
	             0.0000103457       -0.0000021888        0.0000008545
	             0.0057298603        0.0055378009        0.0002331217
	            -0.0000042358       -0.0000029380        0.0000006019
	            -0.0000029584       -0.0000011745        0.0000021726
	             0.0000003437        0.0000002427        0.0000003349
	             0.0000044494        0.0000002885        0.0000012249
	            -0.0000015454        0.0000016302        0.0000017485
	            -0.0025373649       -0.0039337370       -0.0000901188
	            -0.0000050889        0.0000386716        0.0000075637
	            -0.0000073556       -0.0000099585       -0.0000087250
	             0.0000085465       -0.0000088719       -0.0000021262
	            -0.0000058654        0.0000031536       -0.0000020586
	            -0.0000034937        0.0000068351       -0.0000148689

	---Fragment 1 Intrafragment Coordinates---
	 - Coordinate -           - BOHR/RAD -       - ANG/DEG -
	 R(1,2)           =         2.654622	       1.404765
	 R(1,6)           =         2.655213	       1.405078
	 R(1,7)           =         2.784367	       1.473424
	 R(2,3)           =         2.632370	       1.392990
	 R(2,8)           =         2.053138	       1.086474
	 R(3,4)           =         2.641310	       1.397721
	 R(3,9)           =         2.050772	       1.085222
	 R(4,5)           =         2.642517	       1.398360
	 R(4,10)          =         2.051573	       1.085646
	 R(5,6)           =         2.631458	       1.392508
	 R(5,11)          =         2.050820	       1.085247
	 R(6,12)          =         2.052993	       1.086397
	 R(7,13)          =         2.507347	       1.326831
	 R(7,14)          =         2.507075	       1.326687
	 R(13,17)         =         1.912921	       1.012274
	 R(13,18)         =         1.916527	       1.014182
	 R(14,15)         =         1.916481	       1.014158
	 R(14,16)         =         1.912828	       1.012225
	 B(1,2,3)         =         2.082274	     119.305518
	 B(1,2,8)         =         2.100603	     120.355664
	 B(1,6,5)         =         2.081261	     119.247486
	 B(1,6,12)        =         2.100259	     120.335980
	 B(1,7,13)        =         2.083554	     119.378847
	 B(1,7,14)        =         2.083069	     119.351059
	 B(2,1,6)         =         2.108027	     120.781043
	 B(2,1,7)         =         2.083951	     119.401571
	 B(2,3,4)         =         2.095006	     120.035007
	 B(2,3,9)         =         2.089598	     119.725153
	 B(3,2,8)         =         2.100150	     120.329707
	 B(3,4,5)         =         2.103252	     120.507458
	 B(3,4,10)        =         2.090129	     119.755551
	 B(4,3,9)         =         2.098546	     120.237842
	 B(4,5,6)         =         2.095804	     120.080746
	 B(4,5,11)        =         2.098070	     120.210576
	 B(5,4,10)        =         2.089793	     119.736294
	 B(5,6,12)        =         2.100960	     120.376117
	 B(6,1,7)         =         2.087754	     119.619478
	 B(6,5,11)        =         2.089309	     119.708590
	 B(7,13,17)       =         2.081852	     119.281361
	 B(7,13,18)       =         2.153607	     123.392568
	 B(7,14,15)       =         2.152248	     123.314734
	 B(7,14,16)       =         2.082295	     119.306726
	 B(13,7,14)       =         2.115273	     121.196227
	 B(15,14,16)      =         2.048068	     117.345653
	 B(17,13,18)      =         2.047175	     117.294472
	 D(1,2,3,4)       =         0.000624	       0.035733
	 D(1,2,3,9)       =         3.133262	     179.522706
	 D(1,6,5,4)       =        -0.032382	      -1.855364
	 D(1,6,5,11)      =         3.111084	     178.252001
	 D(1,7,13,17)     =        -0.054969	      -3.149520
	 D(1,7,13,18)     =         3.049936	     174.748466
	 D(1,7,14,15)     =         3.032763	     173.764494
	 D(1,7,14,16)     =        -0.146237	      -8.378755
	 D(2,1,6,5)       =         0.044499	       2.549601
	 D(2,1,6,12)      =        -3.137296	    -179.753802
	*D(2,1,7,13)      =        -1.047198	     -60.000026
	 D(2,1,7,14)      =         2.148278	     123.087272
	 D(2,3,4,5)       =         0.011199	       0.641681
	 D(2,3,4,10)      =        -3.135710	    -179.662925
	 D(3,2,1,6)       =        -0.028614	      -1.639488
	 D(3,2,1,7)       =        -3.080646	    -176.508003
	 D(3,4,5,6)       =         0.004927	       0.282286
	 D(3,4,5,11)      =        -3.138549	    -179.825622
	 D(4,3,2,8)       =        -3.121875	    -178.870273
	 D(4,5,6,12)      =        -3.133756	    -179.551015
	 D(5,4,3,9)       =        -3.121393	    -178.842637
	 D(5,6,1,7)       =         3.096337	     177.407028
	 D(6,1,2,8)       =         3.093879	     177.266228
	 D(6,1,7,13)      =         2.182903	     125.071106
	 D(6,1,7,14)      =        -0.904807	     -51.841596
	 D(6,5,4,10)      =        -3.131350	    -179.413167
	 D(7,1,2,8)       =         0.041848	       2.397713
	 D(7,1,6,12)      =        -0.085458	      -4.896375
	 D(8,2,3,9)       =         0.010763	       0.616700
	 D(9,3,4,10)      =         0.014883	       0.852758
	 D(10,4,5,11)     =         0.008359	       0.478924
	 D(11,5,6,12)     =         0.009710	       0.556350
	 D(13,7,14,15)    =        -0.053938	      -3.090415
	 D(13,7,14,16)    =         3.050248	     174.766335
	 D(14,7,13,17)    =         3.031716	     173.704530
	 D(14,7,13,18)    =        -0.146564	      -8.397483

	Current energy   :      -381.4681365373

	Energy change for the previous step:
		Projected    :        -0.0000002521
		Actual       :        -0.0000001722

	Performing BFGS update.
	Previous computed or guess Hessian on step 1.
	Steps to be used in Hessian update: 6 5
	Taking RFO optimization step.
	Going to follow RFO solution 1.
	Rejecting RFO root 1 because normalization gives large value.
	Rejecting RFO root 2 because normalization gives large value.
	Using RFO vector 3.
	Norm of target step-size    0.00191
	Projected energy change by RFO approximation:        -0.0000000248

	Back-transformation to cartesian coordinates...
	Successfully converged to displaced geometry.

	Back-transformation to cartesian coordinates to adjust frozen coordinates...
	Successfully converged to displaced geometry.

	--- Internal Coordinate Step in ANG or DEG, aJ/ANG or AJ/DEG ---
	 ---------------------------------------------------------------------------
	   Coordinate                Previous        Force       Change         New 
	   ----------                --------       ------       ------       ------
	    1 R(1,2)          =      1.404765    -0.000035     0.000002     1.404767
	    2 R(1,6)          =      1.405078    -0.000041     0.000000     1.405078
	    3 R(1,7)          =      1.473424     0.000130     0.000004     1.473428
	    4 R(2,3)          =      1.392990     0.000003    -0.000003     1.392987
	    5 R(2,8)          =      1.086474     0.000025     0.000006     1.086479
	    6 R(3,4)          =      1.397721    -0.000009    -0.000000     1.397721
	    7 R(3,9)          =      1.085222     0.000002     0.000000     1.085222
	    8 R(4,5)          =      1.398360    -0.000010     0.000003     1.398363
	    9 R(4,10)         =      1.085646    -0.000002    -0.000001     1.085645
	   10 R(5,6)          =      1.392508     0.000001    -0.000005     1.392503
	   11 R(5,11)         =      1.085247    -0.000004    -0.000000     1.085247
	   12 R(6,12)         =      1.086397     0.000017     0.000003     1.086400
	   13 R(7,13)         =      1.326831    -0.000067    -0.000002     1.326829
	   14 R(7,14)         =      1.326687     0.000056     0.000016     1.326703
	   15 R(13,17)        =      1.012274    -0.000021     0.000005     1.012279
	   16 R(13,18)        =      1.014182    -0.000133    -0.000008     1.014174
	   17 R(14,15)        =      1.014158    -0.000075    -0.000005     1.014153
	   18 R(14,16)        =      1.012225    -0.000089    -0.000001     1.012223
	   19 B(1,2,3)        =    119.305518    -0.000000     0.000169   119.305687
	   20 B(1,2,8)        =    120.355664     0.000000     0.000245   120.355909
	   21 B(1,6,5)        =    119.247486    -0.000000    -0.000388   119.247098
	   22 B(1,6,12)       =    120.335980    -0.000000    -0.001364   120.334616
	   23 B(1,7,13)       =    119.378847    -0.000000    -0.001026   119.377822
	   24 B(1,7,14)       =    119.351059    -0.000001    -0.003391   119.347668
	   25 B(2,1,6)        =    120.781043     0.000000     0.000009   120.781051
	   26 B(2,1,7)        =    119.401571    -0.000000    -0.000944   119.400627
	   27 B(2,3,4)        =    120.035007     0.000000     0.000002   120.035009
	   28 B(2,3,9)        =    119.725153    -0.000000    -0.000468   119.724685
	   29 B(3,2,8)        =    120.329707    -0.000000    -0.000303   120.329405
	   30 B(3,4,5)        =    120.507458    -0.000000    -0.000472   120.506985
	   31 B(3,4,10)       =    119.755551     0.000000     0.000587   119.756138
	   32 B(4,3,9)        =    120.237842     0.000000     0.000488   120.238329
	   33 B(4,5,6)        =    120.080746     0.000000     0.000744   120.081490
	   34 B(4,5,11)       =    120.210576     0.000000    -0.000098   120.210477
	   35 B(5,4,10)       =    119.736294     0.000000    -0.000126   119.736169
	   36 B(5,6,12)       =    120.376117     0.000000     0.001537   120.377654
	   37 B(6,1,7)        =    119.619478     0.000000     0.001634   119.621112
	   38 B(6,5,11)       =    119.708590    -0.000000    -0.000614   119.707976
	   39 B(7,13,17)      =    119.281361    -0.000000    -0.001930   119.279431
	   40 B(7,13,18)      =    123.392568    -0.000000    -0.000209   123.392359
	   41 B(7,14,15)      =    123.314734     0.000000     0.000461   123.315196
	   42 B(7,14,16)      =    119.306726    -0.000001    -0.004538   119.302187
	   43 B(13,7,14)      =    121.196227     0.000001     0.002733   121.198960
	   44 B(15,14,16)     =    117.345653     0.000000     0.001685   117.347337
	   45 B(17,13,18)     =    117.294472     0.000000     0.001987   117.296459
	   46 D(1,2,3,4)      =      0.035733     0.000000     0.004955     0.040689
	   47 D(1,2,3,9)      =    179.522706     0.000000     0.007797   179.530503
	   48 D(1,6,5,4)      =     -1.855364     0.000000     0.009156    -1.846208
	   49 D(1,6,5,11)     =    178.252001     0.000000    -0.012047   178.239954
	   50 D(1,7,13,17)    =     -3.149520     0.000000     0.023387    -3.126133
	   51 D(1,7,13,18)    =    174.748466     0.000000     0.018340   174.766807
	   52 D(1,7,14,15)    =    173.764494     0.000000     0.022343   173.786838
	   53 D(1,7,14,16)    =     -8.378755    -0.000000    -0.054194    -8.432949
	   54 D(2,1,6,5)      =      2.549601    -0.000000    -0.001454     2.548148
	   55 D(2,1,6,12)     =   -179.753802     0.000000    -0.007511  -179.761313
	   56 *D(2,1,7,13)    =    -60.000026     0.000000     0.000000   -60.000026
	   57 D(2,1,7,14)     =    123.087272     0.000000     0.034863   123.122136
	   58 D(2,3,4,5)      =      0.641681    -0.000000     0.002727     0.644408
	   59 D(2,3,4,10)     =   -179.662925    -0.000000     0.000334  -179.662590
	   60 D(3,2,1,6)      =     -1.639488    -0.000000    -0.005623    -1.645111
	   61 D(3,2,1,7)      =   -176.508003    -0.000000    -0.014751  -176.522754
	   62 D(3,4,5,6)      =      0.282286    -0.000000    -0.009888     0.272398
	   63 D(3,4,5,11)     =   -179.825622     0.000000     0.011422  -179.814201
	   64 D(4,3,2,8)      =   -178.870273     0.000000    -0.001749  -178.872021
	   65 D(4,5,6,12)     =   -179.551015     0.000000     0.015284  -179.535730
	   66 D(5,4,3,9)      =   -178.842637     0.000000    -0.000124  -178.842761
	   67 D(5,6,1,7)      =    177.407028    -0.000000     0.007563   177.414591
	   68 D(6,1,2,8)      =    177.266228    -0.000000     0.001076   177.267304
	   69 D(6,1,7,13)     =    125.071106    -0.000000    -0.008939   125.062167
	   70 D(6,1,7,14)     =    -51.841596     0.000000     0.025925   -51.815671
	   71 D(6,5,4,10)     =   -179.413167    -0.000000    -0.007498  -179.420665
	   72 D(7,1,2,8)      =      2.397713    -0.000000    -0.008052     2.389661
	   73 D(7,1,6,12)     =     -4.896375     0.000000     0.001506    -4.894870
	   74 D(8,2,3,9)      =      0.616700    -0.000000     0.001093     0.617793
	   75 D(9,3,4,10)     =      0.852758     0.000000    -0.002517     0.850241
	   76 D(10,4,5,11)    =      0.478924     0.000000     0.013812     0.492736
	   77 D(11,5,6,12)    =      0.556350    -0.000000    -0.005918     0.550432
	   78 D(13,7,14,15)   =     -3.090415     0.000000     0.057984    -3.032431
	   79 D(13,7,14,16)   =    174.766335     0.000000    -0.018553   174.747782
	   80 D(14,7,13,17)   =    173.704530    -0.000000    -0.012338   173.692192
	   81 D(14,7,13,18)   =     -8.397483    -0.000000    -0.017384    -8.414868
	 ---------------------------------------------------------------------------
	Successfully symmetrized geometry.

  ==> Convergence Check <==

  Measures of convergence in internal coordinates in au.
  Criteria marked as inactive (o), active & met (*), and active & unmet ( ).
  ---------------------------------------------------------------------------------------------
   Step     Total Energy     Delta E     MAX Force     RMS Force      MAX Disp      RMS Disp   
  ---------------------------------------------------------------------------------------------
    Convergence Criteria    1.00e-06 *    3.00e-04 *             o    1.20e-03 *             o
  ---------------------------------------------------------------------------------------------
      7    -381.46813654   -1.72e-07 *    1.62e-05 *    5.00e-06 o    1.01e-03 *    2.13e-04 o  ~
  ---------------------------------------------------------------------------------------------


  **** Optimization is complete! (in 7 steps) ****

  ==> Optimization Summary <==

  Measures of convergence in internal coordinates in au.
  --------------------------------------------------------------------------------------------------------------- ~
   Step         Total Energy             Delta E       MAX Force       RMS Force        MAX Disp        RMS Disp  ~
  --------------------------------------------------------------------------------------------------------------- ~
      1    -381.463893349347   -381.463893349347      0.00478535      0.00165185      0.15824380      0.04791069  ~
      2    -381.467109397105     -0.003216047758      0.00570047      0.00127801      0.13606702      0.03567429  ~
      3    -381.468006495711     -0.000897098606      0.00522082      0.00096232      0.03422050      0.00770289  ~
      4    -381.468125472584     -0.000118976874      0.00083172      0.00015218      0.01772181      0.00344301  ~
      5    -381.468134230279     -0.000008757695      0.00037196      0.00008356      0.00557203      0.00141338  ~
      6    -381.468136365063     -0.000002134784      0.00004806      0.00001563      0.00179611      0.00041058  ~
      7    -381.468136537256     -0.000000172194      0.00001617      0.00000500      0.00101202      0.00021265  ~
  --------------------------------------------------------------------------------------------------------------- ~

	Writing optimization data to binary file.
	Final energy is   -381.4681365372563
	Final (previous) structure:
	Cartesian Geometry (in Angstrom)
	    C    -0.0493739381   0.0070020433  -0.1772877974
	    C    -0.0089511131   1.2250334016   0.5213761356
	    C     0.0229704348   1.2115515207   1.9139354528
	    C     0.0153915102  -0.0049723694   2.6021481649
	    C    -0.0106367562  -1.2158363891   1.9031915607
	    C    -0.0233242186  -1.2178163928   0.5107430145
	    C    -0.0050147947   0.0160491417  -1.6500158457
	    H     0.0152519531   2.1673580234  -0.0188677668
	    H     0.0621241872   2.1483450973   2.4603702324
	    H     0.0348302628  -0.0100866662   3.6876078842
	    H    -0.0192715489  -2.1575727688   2.4424687659
	    H    -0.0508869297  -2.1555861813  -0.0370586920
	    N    -0.9561030459   0.6476685771  -2.3260097560
	    N     0.9502151478  -0.6590765422  -2.2759865558
	    H     0.9852304753  -0.7700070387  -3.2834511779
	    H     1.7058551254  -1.0631585748  -1.7371685221
	    H    -1.7235444188   1.0726732977  -1.8209322726
	    H    -0.9447593325   0.7584308204  -3.3340618246
	Saving final (previous) structure.
			--------------------------
			 OPTKING Finished Execution 
			--------------------------

    Final optimized geometry and variables:
    Molecular point group: c1
    Full point group: C1

    Geometry (in Angstrom), charge = 1, multiplicity = 1:

    C           -0.049373938064     0.007002043290    -0.177287797430
    C           -0.008951113131     1.225033401590     0.521376135576
    C            0.022970434780     1.211551520707     1.913935452750
    C            0.015391510204    -0.004972369422     2.602148164878
    C           -0.010636756217    -1.215836389127     1.903191560712
    C           -0.023324218583    -1.217816392796     0.510743014482
    C           -0.005014794661     0.016049141734    -1.650015845694
    H            0.015251953066     2.167358023405    -0.018867766819
    H            0.062124187155     2.148345097326     2.460370232402
    H            0.034830262771    -0.010086666202     3.687607884233
    H           -0.019271548887    -2.157572768785     2.442468765937
    H           -0.050886929693    -2.155586181288    -0.037058692020
    N           -0.956103045853     0.647668577120    -2.326009756031
    N            0.950215147778    -0.659076542167    -2.275986555783
    H            0.985230475313    -0.770007038686    -3.283451177943
    H            1.705855125412    -1.063158574780    -1.737168522066
    H           -1.723544418845     1.072673297685    -1.820932272617
    H           -0.944759332546     0.758430820396    -3.334061824567

	Cleaning optimization helper files.


Properties will be evaluated at   0.000000,   0.000000,   0.000000 Bohr

Properties computed using the  density matrix

  Nuclear Dipole Moment: (a.u.)
     X:    -0.6236      Y:     0.0692      Z:    -0.2089

  Electronic Dipole Moment: (a.u.)
     X:     0.6572      Y:    -0.0461      Z:    -2.1852

  Dipole Moment: (a.u.)
     X:     0.0336      Y:     0.0231      Z:    -2.3941     Total:     2.3944

  Dipole Moment: (Debye)
     X:     0.0854      Y:     0.0588      Z:    -6.0851     Total:     6.0860

  Quadrupole Moment: (Debye Ang)
    XX:   -45.9547     YY:   -41.1990     ZZ:   -13.5664
    XY:    -5.7592     XZ:     0.1360     YZ:    -0.2239

  Traceless Quadrupole Moment: (Debye Ang)
    XX:   -12.3813     YY:    -7.6256     ZZ:    20.0070
    XY:    -5.7592     XZ:     0.1360     YZ:    -0.2239

  Mulliken Charges: (a.u.)
   Center  Symbol    Alpha    Beta     Spin     Total
       1     C     2.97728  2.97728  0.00000  0.04545
       2     C     3.07524  3.07524  0.00000 -0.15049
       3     C     3.06177  3.06177  0.00000 -0.12354
       4     C     3.05254  3.05254  0.00000 -0.10509
       5     C     3.06321  3.06321  0.00000 -0.12641
       6     C     3.07714  3.07714  0.00000 -0.15428
       7     C     2.73650  2.73650  0.00000  0.52701
       8     H     0.41341  0.41341  0.00000  0.17317
       9     H     0.40631  0.40631  0.00000  0.18738
      10     H     0.40525  0.40525  0.00000  0.18950
      11     H     0.40629  0.40629  0.00000  0.18741
      12     H     0.41332  0.41332  0.00000  0.17336
      13     N     3.85217  3.85217  0.00000 -0.70435
      14     N     3.85375  3.85375  0.00000 -0.70750
      15     H     0.30534  0.30534  0.00000  0.38931
      16     H     0.29767  0.29767  0.00000  0.40465
      17     H     0.29723  0.29723  0.00000  0.40554
      18     H     0.30556  0.30556  0.00000  0.38888

   Total alpha = 32.00000, Total beta = 32.00000, Total charge =  1.00000


*** Psi4 exiting successfully. Buy a developer a beer!
