    -----------------------------------------------------------------------
          Psi4: An Open-Source Ab Initio Electronic Structure Package
                              Psi4 (no tag) Driver

                          Git: Rev {detached?}  

    J. M. Turney, A. C. Simmonett, R. M. Parrish, E. G. Hohenstein,
    F. A. Evangelista, J. T. Fermann, B. J. Mintz, L. A. Burns, J. J. Wilke,
    M. L. Abrams, N. J. Russ, M. L. Leininger, C. L. Janssen, E. T. Seidl,
    W. D. Allen, H. F. Schaefer, R. A. King, E. F. Valeev, C. D. Sherrill,
    and T. D. Crawford, WIREs Comput. Mol. Sci. 2, 556-565 (2012)
    (doi: 10.1002/wcms.93)

                         Additional Contributions by
    A. E. DePrince, M. Saitow, U. Bozkaya, A. Yu. Sokolov
    -----------------------------------------------------------------------


    Psi4 started on: Tue Jul  5 16:58:30 2016

    Process ID:  24939
    PSI4DATADIR: /export131/home/mjharvey/miniconda3/share
    Memory level set to 256.000 MB

  ==> Input File <==

--------------------------------------------------------------------------
set {
	reference rhf
	basis 6-31G*
}


set_num_threads( 1 )
memory 2 gb

molecule MOL {
0 1

H	 -3.364762	 -2.627118	 1.915148
C	 -2.967265	 -1.801385	 1.357634
C	 -1.738789	 -1.853752	 0.897085
H	 -3.593889	 -0.945615	 1.190570
O	 -1.180634	 -0.819263	 0.215062
H	 -1.097584	 -2.704327	 1.047329
C	 0.051604	 -1.018856	 -0.387932
C	 1.043764	 0.054862	 -0.001873
H	 -0.017620	 -1.041351	 -1.469781
H	 0.437898	 -1.966374	 -0.042284
F	 0.990529	 0.254188	 1.307035
F	 2.284001	 -0.290991	 -0.305236
F	 0.789209	 1.201364	 -0.597797

	symmetry c1
}
set optking {
	frozen_dihedral = ("
		11 8 7 9,
		6 3 2 1,
		6 3 5 7
	")
}

ee = energy('scf')
oeprop('DIPOLE', 'QUADRUPOLE', 'MULLIKEN_CHARGES')
f=open( 'psi4out.xyz', 'w' )
f.write( "13  " )
f.write( str(ee) + "\n" )
f.write( MOL.save_string_xyz() )
f.close()
--------------------------------------------------------------------------

  Memory set to   2.000 GiB by Python script.

*** tstart() called on cx1-3-14-4.cx1.hpc.ic.ac.uk
*** at Tue Jul  5 16:58:30 2016


         ---------------------------------------------------------
                                   SCF
            by Justin Turney, Rob Parrish, and Andy Simmonett
                              RHF Reference
                        1 Threads,   2000 MiB Core
         ---------------------------------------------------------

  ==> Geometry <==

    Molecular point group: c1
    Full point group: C1

    Geometry (in Angstrom), charge = 0, multiplicity = 1:

       Center              X                  Y                   Z               Mass       
    ------------   -----------------  -----------------  -----------------  -----------------
           H         -3.422657064165    -2.184631408499     1.628262954240     1.007825032070
           C         -3.025160064165    -1.358898408499     1.070748954240    12.000000000000
           C         -1.796684064165    -1.411265408499     0.610199954240    12.000000000000
           H         -3.651784064165    -0.503128408499     0.903684954240     1.007825032070
           O         -1.238529064165    -0.376776408499    -0.071823045760    15.994914619560
           H         -1.155479064165    -2.261840408499     0.760443954240     1.007825032070
           C         -0.006291064165    -0.576369408499    -0.674817045760    12.000000000000
           C          0.985868935835     0.497348591501    -0.288758045760    12.000000000000
           H         -0.075515064165    -0.598864408499    -1.756666045760     1.007825032070
           H          0.380002935835    -1.523887408499    -0.329169045760     1.007825032070
           F          0.932633935835     0.696674591501     1.020149954240    18.998403224000
           F          2.226105935835     0.151495591501    -0.592121045760    18.998403224000
           F          0.731313935835     1.643850591501    -0.884682045760    18.998403224000

  Running in c1 symmetry.

  Rotational constants: A =      0.16614  B =      0.03498  C =      0.03466 [cm^-1]
  Rotational constants: A =   4980.90026  B =   1048.52656  C =   1039.10247 [MHz]
  Nuclear repulsion =  407.663549623395738

  Charge       = 0
  Multiplicity = 1
  Electrons    = 64
  Nalpha       = 32
  Nbeta        = 32

  ==> Algorithm <==

  SCF Algorithm Type is DF.
  DIIS enabled.
  MOM disabled.
  Fractional occupation disabled.
  Guess Type is CORE.
  Energy threshold   = 1.00e-06
  Density threshold  = 1.00e-06
  Integral threshold = 0.00e+00

  ==> Primary Basis <==

  Basis Set: 6-31G*
    Number of shells: 58
    Number of basis function: 130
    Number of Cartesian functions: 130
    Spherical Harmonics?: false
    Max angular momentum: 2

  ==> Pre-Iterations <==

   -------------------------------------------------------
    Irrep   Nso     Nmo     Nalpha   Nbeta   Ndocc  Nsocc
   -------------------------------------------------------
     A        130     130       0       0       0       0
   -------------------------------------------------------
    Total     130     130      32      32      32       0
   -------------------------------------------------------

 OEINTS: Overlap, kinetic, potential, dipole, and quadrupole integrals
         stored in file 35.

  ==> Integral Setup <==

  ==> DFJK: Density-Fitted J/K Matrices <==

    J tasked:                  Yes
    K tasked:                  Yes
    wK tasked:                  No
    OpenMP threads:              1
    Integrals threads:           1
    Memory (MB):              1430
    Algorithm:                Core
    Integral Cache:           NONE
    Schwarz Cutoff:          1E-12
    Fitting Condition:       1E-12

   => Auxiliary Basis Set <=

  Basis Set: 
    Number of shells: 237
    Number of basis function: 773
    Number of Cartesian functions: 773
    Spherical Harmonics?: false
    Max angular momentum: 3

  Minimum eigenvalue in the overlap matrix is 1.8868147923E-03.
  Using Symmetric Orthogonalization.
  SCF Guess: Core (One-Electron) Hamiltonian.

  ==> Iterations <==

                           Total Energy        Delta E     RMS |[F,P]|

   @DF-RHF iter   1:  -440.48746935146255   -4.40487e+02   7.44417e-02 
   @DF-RHF iter   2:  -167.13084145280118    2.73357e+02   9.86543e-02 DIIS
   @DF-RHF iter   3:  -490.99397598405119   -3.23863e+02   3.67224e-02 DIIS
   @DF-RHF iter   4:  -368.74529993869419    1.22249e+02   7.81807e-02 DIIS
   @DF-RHF iter   5:  -510.55554169767970   -1.41810e+02   3.68048e-02 DIIS
   @DF-RHF iter   6:  -527.16869811971083   -1.66132e+01   6.91620e-03 DIIS
   @DF-RHF iter   7:  -527.47389378810374   -3.05196e-01   3.06453e-03 DIIS
   @DF-RHF iter   8:  -527.52864623333915   -5.47524e-02   4.54648e-04 DIIS
   @DF-RHF iter   9:  -527.53085022608911   -2.20399e-03   1.84942e-04 DIIS
   @DF-RHF iter  10:  -527.53121425493509   -3.64029e-04   7.48060e-05 DIIS
   @DF-RHF iter  11:  -527.53127102224289   -5.67673e-05   3.91756e-05 DIIS
   @DF-RHF iter  12:  -527.53128902846322   -1.80062e-05   1.02368e-05 DIIS
   @DF-RHF iter  13:  -527.53129062585515   -1.59739e-06   3.44549e-06 DIIS
   @DF-RHF iter  14:  -527.53129089941172   -2.73557e-07   1.51085e-06 DIIS
   @DF-RHF iter  15:  -527.53129093477548   -3.53638e-08   3.99543e-07 DIIS

  ==> Post-Iterations <==

    Orbital Energies (a.u.)
    -----------------------

    Doubly Occupied:                                                      

       1A    -26.346941     2A    -26.340726     3A    -26.335000  
       4A    -20.607563     5A    -11.504138     6A    -11.319095  
       7A    -11.303050     8A    -11.217880     9A     -1.740043  
      10A     -1.640119    11A     -1.633683    12A     -1.437861  
      13A     -1.085963    14A     -1.016553    15A     -0.923314  
      16A     -0.837461    17A     -0.828855    18A     -0.810565  
      19A     -0.801486    20A     -0.723222    21A     -0.712046  
      22A     -0.697643    23A     -0.677213    24A     -0.658438  
      25A     -0.653561    26A     -0.640703    27A     -0.629676  
      28A     -0.584559    29A     -0.559070    30A     -0.526190  
      31A     -0.515805    32A     -0.352825  

    Virtual:                                                              

      33A      0.190905    34A      0.224119    35A      0.268434  
      36A      0.281331    37A      0.294360    38A      0.322964  
      39A      0.341878    40A      0.408272    41A      0.425291  
      42A      0.455303    43A      0.478311    44A      0.506936  
      45A      0.520664    46A      0.684435    47A      0.704480  
      48A      0.729244    49A      0.744980    50A      0.749601  
      51A      0.778827    52A      0.809371    53A      0.833021  
      54A      0.865823    55A      0.923294    56A      0.934242  
      57A      0.964621    58A      1.070109    59A      1.078936  
      60A      1.117318    61A      1.133002    62A      1.165763  
      63A      1.207243    64A      1.247673    65A      1.271047  
      66A      1.335832    67A      1.350833    68A      1.361455  
      69A      1.401774    70A      1.430712    71A      1.445396  
      72A      1.473144    73A      1.527124    74A      1.612567  
      75A      1.627481    76A      1.636201    77A      1.670183  
      78A      1.674606    79A      1.684950    80A      1.719536  
      81A      1.741355    82A      1.823897    83A      1.835873  
      84A      1.908914    85A      1.931937    86A      1.978416  
      87A      2.012018    88A      2.030917    89A      2.120248  
      90A      2.132296    91A      2.141839    92A      2.155122  
      93A      2.197905    94A      2.253930    95A      2.280556  
      96A      2.298141    97A      2.301708    98A      2.340126  
      99A      2.362442   100A      2.399928   101A      2.414530  
     102A      2.442332   103A      2.466663   104A      2.544208  
     105A      2.556441   106A      2.605737   107A      2.662337  
     108A      2.671068   109A      2.733477   110A      2.810500  
     111A      2.837427   112A      2.878014   113A      3.007654  
     114A      3.105343   115A      3.135708   116A      3.166409  
     117A      3.242480   118A      3.317947   119A      3.418906  
     120A      3.423006   121A      3.448886   122A      3.484511  
     123A      4.366625   124A      4.551447   125A      4.626527  
     126A      4.730259   127A      4.812757   128A      4.940488  
     129A      5.110495   130A      5.721728  

    Final Occupation by Irrep:
              A 
    DOCC [    32 ]

  Energy converged.

  @DF-RHF Final Energy:  -527.53129093477548

   => Energetics <=

    Nuclear Repulsion Energy =            407.6635496233957383
    One-Electron Energy =               -1539.0672296453510626
    Two-Electron Energy =                 603.8723890871794993
    DFT Exchange-Correlation Energy =       0.0000000000000000
    Empirical Dispersion Energy =           0.0000000000000000
    PCM Polarization Energy =               0.0000000000000000
    EFP Energy =                            0.0000000000000000
    Total Energy =                       -527.5312909347758250

    Alert: EFP and PCM quantities not currently incorporated into SCF psivars.

Properties will be evaluated at   0.000000,   0.000000,   0.000000 Bohr
  ==> Properties <==


Properties computed using the SCF density matrix

  Nuclear Dipole Moment: (a.u.)
     X:   -11.1055      Y:    -8.9828      Z:     1.5616

  Electronic Dipole Moment: (a.u.)
     X:    10.9875      Y:     7.9670      Z:    -1.8201

  Dipole Moment: (a.u.)
     X:    -0.1180      Y:    -1.0158      Z:    -0.2586     Total:     1.0549

  Dipole Moment: (Debye)
     X:    -0.3000      Y:    -2.5820      Z:    -0.6573     Total:     2.6812


  Saving occupied orbitals to File 180.

*** tstop() called on cx1-3-14-4.cx1.hpc.ic.ac.uk at Tue Jul  5 16:58:40 2016
Module time:
	user time   =       9.37 seconds =       0.16 minutes
	system time =       0.05 seconds =       0.00 minutes
	total time  =         10 seconds =       0.17 minutes
Total time:
	user time   =       9.37 seconds =       0.16 minutes
	system time =       0.05 seconds =       0.00 minutes
	total time  =         10 seconds =       0.17 minutes


Properties will be evaluated at   0.000000,   0.000000,   0.000000 Bohr

Properties computed using the  density matrix

  Nuclear Dipole Moment: (a.u.)
     X:   -11.1055      Y:    -8.9828      Z:     1.5616

  Electronic Dipole Moment: (a.u.)
     X:    10.9875      Y:     7.9670      Z:    -1.8201

  Dipole Moment: (a.u.)
     X:    -0.1180      Y:    -1.0158      Z:    -0.2586     Total:     1.0549

  Dipole Moment: (Debye)
     X:    -0.3000      Y:    -2.5820      Z:    -0.6573     Total:     2.6812

  Quadrupole Moment: (Debye Ang)
    XX:   -46.4408     YY:   -42.1885     ZZ:   -44.3972
    XY:    -0.0700     XZ:    -1.3432     YZ:    -0.6584

  Traceless Quadrupole Moment: (Debye Ang)
    XX:    -2.0986     YY:     2.1537     ZZ:    -0.0550
    XY:    -0.0700     XZ:    -1.3432     YZ:    -0.6584

  Mulliken Charges: (a.u.)
   Center  Symbol    Alpha    Beta     Spin     Total
       1     H     0.40696  0.40696  0.00000  0.18608
       2     C     3.23589  3.23589  0.00000 -0.47179
       3     C     2.89620  2.89620  0.00000  0.20761
       4     H     0.40070  0.40070  0.00000  0.19861
       5     O     4.30281  4.30281  0.00000 -0.60563
       6     H     0.40692  0.40692  0.00000  0.18617
       7     C     3.05139  3.05139  0.00000 -0.10277
       8     C     2.45301  2.45301  0.00000  1.09398
       9     H     0.39974  0.39974  0.00000  0.20052
      10     H     0.40990  0.40990  0.00000  0.18019
      11     F     4.68017  4.68017  0.00000 -0.36034
      12     F     4.68066  4.68066  0.00000 -0.36133
      13     F     4.67565  4.67565  0.00000 -0.35130

   Total alpha = 32.00000, Total beta = 32.00000, Total charge = -0.00000


*** PSI4 exiting successfully. Buy a developer a beer!
