    -----------------------------------------------------------------------
          Psi4: An Open-Source Ab Initio Electronic Structure Package
                              Psi4 (no tag) Driver

                          Git: Rev {detached?}  

    J. M. Turney, A. C. Simmonett, R. M. Parrish, E. G. Hohenstein,
    F. A. Evangelista, J. T. Fermann, B. J. Mintz, L. A. Burns, J. J. Wilke,
    M. L. Abrams, N. J. Russ, M. L. Leininger, C. L. Janssen, E. T. Seidl,
    W. D. Allen, H. F. Schaefer, R. A. King, E. F. Valeev, C. D. Sherrill,
    and T. D. Crawford, WIREs Comput. Mol. Sci. 2, 556-565 (2012)
    (doi: 10.1002/wcms.93)

                         Additional Contributions by
    A. E. DePrince, M. Saitow, U. Bozkaya, A. Yu. Sokolov
    -----------------------------------------------------------------------


    Psi4 started on: Tue Jul  5 16:25:48 2016

    Process ID:  16776
    PSI4DATADIR: /export131/home/mjharvey/miniconda3/share
    Memory level set to 256.000 MB

  ==> Input File <==

--------------------------------------------------------------------------
set {
	reference rhf
	basis 6-31G*
}


set_num_threads( 1 )
memory 2 gb

molecule MOL {
0 1

H	 -1.571781	 -1.326123	 -1.531142
N	 -0.635097	 -1.300471	 -1.176961
C	 -0.563778	 -0.502042	 0.037919
H	 -0.064481	 -0.897805	 -1.895997
C	 0.575259	 0.508231	 -0.048326
H	 -0.379745	 -1.178195	 0.867464
H	 -1.495719	 0.022884	 0.263049
C	 1.954651	 -0.143624	 0.035137
H	 0.475158	 1.060484	 -0.977307
H	 0.469181	 1.234488	 0.755973
H	 2.103292	 -0.853109	 -0.774172
H	 2.742821	 0.599562	 -0.030094
H	 2.083613	 -0.679371	 0.971560

	symmetry c1
}
set optking {
	frozen_dihedral = ("
		6 3 5 9
	")
}

ee = energy('scf')
oeprop('DIPOLE', 'QUADRUPOLE', 'MULLIKEN_CHARGES')
f=open( 'psi4out.xyz', 'w' )
f.write( "13  " )
f.write( str(ee) + "\n" )
f.write( MOL.save_string_xyz() )
f.close()
--------------------------------------------------------------------------

  Memory set to   2.000 GiB by Python script.

*** tstart() called on cx1-3-15-3.cx1.hpc.ic.ac.uk
*** at Tue Jul  5 16:25:48 2016


         ---------------------------------------------------------
                                   SCF
            by Justin Turney, Rob Parrish, and Andy Simmonett
                              RHF Reference
                        1 Threads,   2000 MiB Core
         ---------------------------------------------------------

  ==> Geometry <==

    Molecular point group: c1
    Full point group: C1

    Geometry (in Angstrom), charge = 0, multiplicity = 1:

       Center              X                  Y                   Z               Mass       
    ------------   -----------------  -----------------  -----------------  -----------------
           H         -1.895051982417    -0.955520590235    -1.217069323715     1.007825032070
           N         -0.958367982417    -0.929868590235    -0.862888323715    14.003074004780
           C         -0.887048982417    -0.131439590235     0.351991676285    12.000000000000
           H         -0.387751982417    -0.527202590235    -1.581924323715     1.007825032070
           C          0.251988017583     0.878833409765     0.265746676285    12.000000000000
           H         -0.703015982417    -0.807592590235     1.181536676285     1.007825032070
           H         -1.818989982417     0.393486409765     0.577121676285     1.007825032070
           C          1.631380017583     0.226978409765     0.349209676285    12.000000000000
           H          0.151887017583     1.431086409765    -0.663234323715     1.007825032070
           H          0.145910017583     1.605090409765     1.070045676285     1.007825032070
           H          1.780021017583    -0.482506590235    -0.460099323715     1.007825032070
           H          2.419550017583     0.970164409765     0.283978676285     1.007825032070
           H          1.760342017583    -0.308768590235     1.285632676285     1.007825032070

  Running in c1 symmetry.

  Rotational constants: A =      0.48331  B =      0.16273  C =      0.14208 [cm^-1]
  Rotational constants: A =  14489.36457  B =   4878.63072  C =   4259.30632 [MHz]
  Nuclear repulsion =  134.153119155952510

  Charge       = 0
  Multiplicity = 1
  Electrons    = 34
  Nalpha       = 17
  Nbeta        = 17

  ==> Algorithm <==

  SCF Algorithm Type is DF.
  DIIS enabled.
  MOM disabled.
  Fractional occupation disabled.
  Guess Type is CORE.
  Energy threshold   = 1.00e-06
  Density threshold  = 1.00e-06
  Integral threshold = 0.00e+00

  ==> Primary Basis <==

  Basis Set: 6-31G*
    Number of shells: 42
    Number of basis function: 78
    Number of Cartesian functions: 78
    Spherical Harmonics?: false
    Max angular momentum: 2

  ==> Pre-Iterations <==

   -------------------------------------------------------
    Irrep   Nso     Nmo     Nalpha   Nbeta   Ndocc  Nsocc
   -------------------------------------------------------
     A         78      78       0       0       0       0
   -------------------------------------------------------
    Total      78      78      17      17      17       0
   -------------------------------------------------------

 OEINTS: Overlap, kinetic, potential, dipole, and quadrupole integrals
         stored in file 35.

  ==> Integral Setup <==

  ==> DFJK: Density-Fitted J/K Matrices <==

    J tasked:                  Yes
    K tasked:                  Yes
    wK tasked:                  No
    OpenMP threads:              1
    Integrals threads:           1
    Memory (MB):              1430
    Algorithm:                Core
    Integral Cache:           NONE
    Schwarz Cutoff:          1E-12
    Fitting Condition:       1E-12

   => Auxiliary Basis Set <=

  Basis Set: 
    Number of shells: 177
    Number of basis function: 549
    Number of Cartesian functions: 549
    Spherical Harmonics?: false
    Max angular momentum: 3

  Minimum eigenvalue in the overlap matrix is 5.1045165751E-03.
  Using Symmetric Orthogonalization.
  SCF Guess: Core (One-Electron) Hamiltonian.

  ==> Iterations <==

                           Total Energy        Delta E     RMS |[F,P]|

   @DF-RHF iter   1:  -134.82266589949015   -1.34823e+02   8.59636e-02 
   @DF-RHF iter   2:  -103.45965341279933    3.13630e+01   8.04267e-02 DIIS
   @DF-RHF iter   3:  -148.87651558240972   -4.54169e+01   5.16323e-02 DIIS
   @DF-RHF iter   4:  -153.71804200310365   -4.84153e+00   5.88455e-02 DIIS
   @DF-RHF iter   5:  -173.17773041313231   -1.94597e+01   5.33752e-03 DIIS
   @DF-RHF iter   6:  -173.25820702789062   -8.04766e-02   2.51135e-03 DIIS
   @DF-RHF iter   7:  -173.27371871417810   -1.55117e-02   7.20401e-04 DIIS
   @DF-RHF iter   8:  -173.27554331680435   -1.82460e-03   2.81249e-04 DIIS
   @DF-RHF iter   9:  -173.27587881702593   -3.35500e-04   8.41289e-05 DIIS
   @DF-RHF iter  10:  -173.27591242770765   -3.36107e-05   2.30164e-05 DIIS
   @DF-RHF iter  11:  -173.27591494827286   -2.52057e-06   5.79199e-06 DIIS
   @DF-RHF iter  12:  -173.27591509226633   -1.43993e-07   2.19573e-06 DIIS
   @DF-RHF iter  13:  -173.27591511709383   -2.48275e-08   3.31258e-07 DIIS

  ==> Post-Iterations <==

    Orbital Energies (a.u.)
    -----------------------

    Doubly Occupied:                                                      

       1A    -15.529527     2A    -11.238895     3A    -11.218284  
       4A    -11.209011     5A     -1.178037     6A     -1.033422  
       7A     -0.904748     8A     -0.800006     9A     -0.669076  
      10A     -0.619437    11A     -0.596487    12A     -0.565924  
      13A     -0.545094    14A     -0.495998    15A     -0.480098  
      16A     -0.468399    17A     -0.375975  

    Virtual:                                                              

      18A      0.223690    19A      0.266308    20A      0.272631  
      21A      0.296211    22A      0.311146    23A      0.323652  
      24A      0.342437    25A      0.353496    26A      0.361241  
      27A      0.412609    28A      0.441879    29A      0.476612  
      30A      0.718025    31A      0.726132    32A      0.755305  
      33A      0.788194    34A      0.823891    35A      0.915574  
      36A      0.951983    37A      0.974225    38A      1.002738  
      39A      1.044478    40A      1.097740    41A      1.127491  
      42A      1.145393    43A      1.168511    44A      1.195221  
      45A      1.214510    46A      1.221970    47A      1.233763  
      48A      1.245302    49A      1.259059    50A      1.277367  
      51A      1.297890    52A      1.495678    53A      1.672237  
      54A      1.702908    55A      1.778850    56A      1.880725  
      57A      1.978668    58A      2.072236    59A      2.199345  
      60A      2.262698    61A      2.288048    62A      2.302360  
      63A      2.368998    64A      2.461922    65A      2.528726  
      66A      2.546734    67A      2.654782    68A      2.704920  
      69A      2.739864    70A      2.794929    71A      2.844749  
      72A      2.993851    73A      3.027360    74A      3.112407  
      75A      4.213636    76A      4.594481    77A      4.780073  
      78A      4.919769  

    Final Occupation by Irrep:
              A 
    DOCC [    17 ]

  Energy converged.

  @DF-RHF Final Energy:  -173.27591511709383

   => Energetics <=

    Nuclear Repulsion Energy =            134.1531191559525098
    One-Electron Energy =                -499.0011792920710718
    Two-Electron Energy =                 191.5721450190242763
    DFT Exchange-Correlation Energy =       0.0000000000000000
    Empirical Dispersion Energy =           0.0000000000000000
    PCM Polarization Energy =               0.0000000000000000
    EFP Energy =                            0.0000000000000000
    Total Energy =                       -173.2759151170942573

    Alert: EFP and PCM quantities not currently incorporated into SCF psivars.

Properties will be evaluated at   0.000000,   0.000000,   0.000000 Bohr
  ==> Properties <==


Properties computed using the SCF density matrix

  Nuclear Dipole Moment: (a.u.)
     X:     1.3648      Y:     1.2385      Z:     0.4487

  Electronic Dipole Moment: (a.u.)
     X:    -1.5528      Y:    -0.6581      Z:    -0.5914

  Dipole Moment: (a.u.)
     X:    -0.1880      Y:     0.5804      Z:    -0.1427     Total:     0.6266

  Dipole Moment: (Debye)
     X:    -0.4778      Y:     1.4753      Z:    -0.3627     Total:     1.5926


  Saving occupied orbitals to File 180.

*** tstop() called on cx1-3-15-3.cx1.hpc.ic.ac.uk at Tue Jul  5 16:25:52 2016
Module time:
	user time   =       2.94 seconds =       0.05 minutes
	system time =       0.02 seconds =       0.00 minutes
	total time  =          4 seconds =       0.07 minutes
Total time:
	user time   =       2.94 seconds =       0.05 minutes
	system time =       0.02 seconds =       0.00 minutes
	total time  =          4 seconds =       0.07 minutes


Properties will be evaluated at   0.000000,   0.000000,   0.000000 Bohr

Properties computed using the  density matrix

  Nuclear Dipole Moment: (a.u.)
     X:     1.3648      Y:     1.2385      Z:     0.4487

  Electronic Dipole Moment: (a.u.)
     X:    -1.5528      Y:    -0.6581      Z:    -0.5914

  Dipole Moment: (a.u.)
     X:    -0.1880      Y:     0.5804      Z:    -0.1427     Total:     0.6266

  Dipole Moment: (Debye)
     X:    -0.4778      Y:     1.4753      Z:    -0.3627     Total:     1.5926

  Quadrupole Moment: (Debye Ang)
    XX:   -25.5808     YY:   -31.1473     ZZ:   -25.3898
    XY:    -0.3793     XZ:     0.8181     YZ:    -0.7385

  Traceless Quadrupole Moment: (Debye Ang)
    XX:     1.7919     YY:    -3.7747     ZZ:     1.9828
    XY:    -0.3793     XZ:     0.8181     YZ:    -0.7385

  Mulliken Charges: (a.u.)
   Center  Symbol    Alpha    Beta     Spin     Total
       1     H     0.33217  0.33217  0.00000  0.33567
       2     N     3.92693  3.92693  0.00000 -0.85385
       3     C     3.05267  3.05267  0.00000 -0.10533
       4     H     0.33293  0.33293  0.00000  0.33415
       5     C     3.16883  3.16883  0.00000 -0.33767
       6     H     0.42002  0.42002  0.00000  0.15995
       7     H     0.42757  0.42757  0.00000  0.14485
       8     C     3.23914  3.23914  0.00000 -0.47828
       9     H     0.42531  0.42531  0.00000  0.14937
      10     H     0.41970  0.41970  0.00000  0.16060
      11     H     0.41629  0.41629  0.00000  0.16741
      12     H     0.41993  0.41993  0.00000  0.16015
      13     H     0.41851  0.41851  0.00000  0.16298

   Total alpha = 17.00000, Total beta = 17.00000, Total charge =  0.00000


*** PSI4 exiting successfully. Buy a developer a beer!
