    -----------------------------------------------------------------------
          Psi4: An Open-Source Ab Initio Electronic Structure Package
                              Psi4 (no tag) Driver

                          Git: Rev {detached?}  

    J. M. Turney, A. C. Simmonett, R. M. Parrish, E. G. Hohenstein,
    F. A. Evangelista, J. T. Fermann, B. J. Mintz, L. A. Burns, J. J. Wilke,
    M. L. Abrams, N. J. Russ, M. L. Leininger, C. L. Janssen, E. T. Seidl,
    W. D. Allen, H. F. Schaefer, R. A. King, E. F. Valeev, C. D. Sherrill,
    and T. D. Crawford, WIREs Comput. Mol. Sci. 2, 556-565 (2012)
    (doi: 10.1002/wcms.93)

                         Additional Contributions by
    A. E. DePrince, M. Saitow, U. Bozkaya, A. Yu. Sokolov
    -----------------------------------------------------------------------


    Psi4 started on: Tue Jul  5 16:39:08 2016

    Process ID:   9358
    PSI4DATADIR: /export131/home/mjharvey/miniconda3/share
    Memory level set to 256.000 MB

  ==> Input File <==

--------------------------------------------------------------------------
set {
	reference rhf
	basis 6-31G*
}


set_num_threads( 1 )
memory 2 gb

molecule MOL {
0 1

H	 -2.671323	 1.698636	 1.410382
C	 -2.099061	 0.917945	 1.907553
O	 -0.830664	 0.784496	 1.351947
H	 -1.972998	 1.184890	 2.947741
H	 -2.662018	 -0.012705	 1.849265
C	 -0.832474	 0.432873	 0.004502
C	 0.587304	 0.425549	 -0.511619
H	 -1.266740	 -0.559024	 -0.126832
H	 -1.422320	 1.137233	 -0.578562
O	 1.392611	 -0.295398	 0.366430
H	 0.605261	 -0.017128	 -1.505461
H	 0.943829	 1.453017	 -0.594634
C	 2.706965	 -0.449871	 -0.062409
H	 2.756559	 -0.644779	 -1.131878
H	 3.305899	 0.433456	 0.155466
H	 3.125548	 -1.294566	 0.467107

	symmetry c1
}
set optking {
	frozen_dihedral = ("
		3 6 7 11,
		2 3 6 7
	")
}

ee = energy('scf')
oeprop('DIPOLE', 'QUADRUPOLE', 'MULLIKEN_CHARGES')
f=open( 'psi4out.xyz', 'w' )
f.write( "16  " )
f.write( str(ee) + "\n" )
f.write( MOL.save_string_xyz() )
f.close()
--------------------------------------------------------------------------

  Memory set to   2.000 GiB by Python script.

*** tstart() called on cx1-3-2-2.cx1.hpc.ic.ac.uk
*** at Tue Jul  5 16:39:09 2016


         ---------------------------------------------------------
                                   SCF
            by Justin Turney, Rob Parrish, and Andy Simmonett
                              RHF Reference
                        1 Threads,   2000 MiB Core
         ---------------------------------------------------------

  ==> Geometry <==

    Molecular point group: c1
    Full point group: C1

    Geometry (in Angstrom), charge = 0, multiplicity = 1:

       Center              X                  Y                   Z               Mass       
    ------------   -----------------  -----------------  -----------------  -----------------
           H         -2.827744710748     1.397236171100     0.894584991037     1.007825032070
           C         -2.255482710748     0.616545171100     1.391755991037    12.000000000000
           O         -0.987085710748     0.483096171100     0.836149991037    15.994914619560
           H         -2.129419710748     0.883490171100     2.431943991037     1.007825032070
           H         -2.818439710748    -0.314104828900     1.333467991037     1.007825032070
           C         -0.988895710748     0.131473171100    -0.511295008963    12.000000000000
           C          0.430882289252     0.124149171100    -1.027416008963    12.000000000000
           H         -1.423161710748    -0.860423828900    -0.642629008963     1.007825032070
           H         -1.578741710748     0.835833171100    -1.094359008963     1.007825032070
           O          1.236189289252    -0.596797828900    -0.149367008963    15.994914619560
           H          0.448839289252    -0.318527828900    -2.021258008963     1.007825032070
           H          0.787407289252     1.151617171100    -1.110431008963     1.007825032070
           C          2.550543289252    -0.751270828900    -0.578206008963    12.000000000000
           H          2.600137289252    -0.946178828900    -1.647675008963     1.007825032070
           H          3.149477289252     0.132056171100    -0.360331008963     1.007825032070
           H          2.969126289252    -1.595965828900    -0.048690008963     1.007825032070

  Running in c1 symmetry.

  Rotational constants: A =      0.36504  B =      0.05423  C =      0.04967 [cm^-1]
  Rotational constants: A =  10943.68182  B =   1625.71188  C =   1489.16979 [MHz]
  Nuclear repulsion =  260.036725773340095

  Charge       = 0
  Multiplicity = 1
  Electrons    = 50
  Nalpha       = 25
  Nbeta        = 25

  ==> Algorithm <==

  SCF Algorithm Type is DF.
  DIIS enabled.
  MOM disabled.
  Fractional occupation disabled.
  Guess Type is CORE.
  Energy threshold   = 1.00e-06
  Density threshold  = 1.00e-06
  Integral threshold = 0.00e+00

  ==> Primary Basis <==

  Basis Set: 6-31G*
    Number of shells: 56
    Number of basis function: 110
    Number of Cartesian functions: 110
    Spherical Harmonics?: false
    Max angular momentum: 2

  ==> Pre-Iterations <==

   -------------------------------------------------------
    Irrep   Nso     Nmo     Nalpha   Nbeta   Ndocc  Nsocc
   -------------------------------------------------------
     A        110     110       0       0       0       0
   -------------------------------------------------------
    Total     110     110      25      25      25       0
   -------------------------------------------------------

 OEINTS: Overlap, kinetic, potential, dipole, and quadrupole integrals
         stored in file 35.

  ==> Integral Setup <==

  ==> DFJK: Density-Fitted J/K Matrices <==

    J tasked:                  Yes
    K tasked:                  Yes
    wK tasked:                  No
    OpenMP threads:              1
    Integrals threads:           1
    Memory (MB):              1430
    Algorithm:                Core
    Integral Cache:           NONE
    Schwarz Cutoff:          1E-12
    Fitting Condition:       1E-12

   => Auxiliary Basis Set <=

  Basis Set: 
    Number of shells: 234
    Number of basis function: 736
    Number of Cartesian functions: 736
    Spherical Harmonics?: false
    Max angular momentum: 3

  Minimum eigenvalue in the overlap matrix is 3.9399856387E-03.
  Using Symmetric Orthogonalization.
  SCF Guess: Core (One-Electron) Hamiltonian.

  ==> Iterations <==

                           Total Energy        Delta E     RMS |[F,P]|

   @DF-RHF iter   1:  -241.10415797322787   -2.41104e+02   7.74471e-02 
   @DF-RHF iter   2:  -213.11209634665556    2.79921e+01   6.19671e-02 DIIS
   @DF-RHF iter   3:  -269.97586800239105   -5.68638e+01   5.20345e-02 DIIS
   @DF-RHF iter   4:  -305.25996264264109   -3.52841e+01   1.78084e-02 DIIS
   @DF-RHF iter   5:  -306.65488932214873   -1.39493e+00   7.60628e-03 DIIS
   @DF-RHF iter   6:  -306.95696898871347   -3.02080e-01   1.41447e-03 DIIS
   @DF-RHF iter   7:  -306.97212674502862   -1.51578e-02   3.50827e-04 DIIS
   @DF-RHF iter   8:  -306.97315215727792   -1.02541e-03   1.40622e-04 DIIS
   @DF-RHF iter   9:  -306.97329478721122   -1.42630e-04   5.96843e-05 DIIS
   @DF-RHF iter  10:  -306.97332065860314   -2.58714e-05   2.25852e-05 DIIS
   @DF-RHF iter  11:  -306.97332435194062   -3.69334e-06   5.48983e-06 DIIS
   @DF-RHF iter  12:  -306.97332455706658   -2.05126e-07   1.40120e-06 DIIS
   @DF-RHF iter  13:  -306.97332457238736   -1.53208e-08   3.71266e-07 DIIS

  ==> Post-Iterations <==

    Orbital Energies (a.u.)
    -----------------------

    Doubly Occupied:                                                      

       1A    -20.551815     2A    -20.551250     3A    -11.269710  
       4A    -11.269010     5A    -11.262571     6A    -11.262307  
       7A     -1.388100     8A     -1.367134     9A     -1.030538  
      10A     -0.933343    11A     -0.895502    12A     -0.820289  
      13A     -0.686494    14A     -0.677538    15A     -0.656707  
      16A     -0.638687    17A     -0.621955    18A     -0.592891  
      19A     -0.564941    20A     -0.526543    21A     -0.506099  
      22A     -0.472281    23A     -0.468207    24A     -0.414283  
      25A     -0.409138  

    Virtual:                                                              

      26A      0.234102    27A      0.250452    28A      0.284850  
      29A      0.298568    30A      0.305967    31A      0.316580  
      32A      0.328325    33A      0.334953    34A      0.338317  
      35A      0.348591    36A      0.362915    37A      0.365809  
      38A      0.445505    39A      0.455529    40A      0.465614  
      41A      0.708772    42A      0.754924    43A      0.771939  
      44A      0.778680    45A      0.782698    46A      0.818634  
      47A      0.821029    48A      0.832693    49A      0.913047  
      50A      0.929197    51A      0.987697    52A      1.026825  
      53A      1.058344    54A      1.102094    55A      1.119573  
      56A      1.143898    57A      1.152544    58A      1.161541  
      59A      1.168250    60A      1.181426    61A      1.204149  
      62A      1.230106    63A      1.241814    64A      1.250864  
      65A      1.330496    66A      1.347336    67A      1.398129  
      68A      1.417035    69A      1.422212    70A      1.603910  
      71A      1.639886    72A      1.679598    73A      1.693760  
      74A      1.733807    75A      1.782766    76A      1.831458  
      77A      1.903808    78A      1.907311    79A      2.026619  
      80A      2.108328    81A      2.223838    82A      2.239942  
      83A      2.282377    84A      2.399266    85A      2.412014  
      86A      2.425141    87A      2.454594    88A      2.474563  
      89A      2.480351    90A      2.508930    91A      2.538167  
      92A      2.593810    93A      2.614196    94A      2.670151  
      95A      2.717143    96A      2.799860    97A      2.854461  
      98A      2.885352    99A      2.917911   100A      3.017014  
     101A      3.167101   102A      3.248694   103A      3.291458  
     104A      3.390569   105A      4.324536   106A      4.431180  
     107A      4.638112   108A      4.679553   109A      4.692678  
     110A      4.894473  

    Final Occupation by Irrep:
              A 
    DOCC [    25 ]

  Energy converged.

  @DF-RHF Final Energy:  -306.97332457238736

   => Energetics <=

    Nuclear Repulsion Energy =            260.0367257733400947
    One-Electron Energy =                -934.3453585935467345
    Two-Electron Energy =                 367.3353082478195120
    DFT Exchange-Correlation Energy =       0.0000000000000000
    Empirical Dispersion Energy =           0.0000000000000000
    PCM Polarization Energy =               0.0000000000000000
    EFP Energy =                            0.0000000000000000
    Total Energy =                       -306.9733245723871278

    Alert: EFP and PCM quantities not currently incorporated into SCF psivars.

Properties will be evaluated at   0.000000,   0.000000,   0.000000 Bohr
  ==> Properties <==


Properties computed using the SCF density matrix

  Nuclear Dipole Moment: (a.u.)
     X:    -0.7699      Y:     0.3417      Z:    -2.1204

  Electronic Dipole Moment: (a.u.)
     X:     0.5090      Y:    -0.2337      Z:     1.3938

  Dipole Moment: (a.u.)
     X:    -0.2609      Y:     0.1080      Z:    -0.7267     Total:     0.7796

  Dipole Moment: (Debye)
     X:    -0.6632      Y:     0.2744      Z:    -1.8470     Total:     1.9815


  Saving occupied orbitals to File 180.

*** tstop() called on cx1-3-2-2.cx1.hpc.ic.ac.uk at Tue Jul  5 16:39:16 2016
Module time:
	user time   =       6.79 seconds =       0.11 minutes
	system time =       0.04 seconds =       0.00 minutes
	total time  =          7 seconds =       0.12 minutes
Total time:
	user time   =       6.79 seconds =       0.11 minutes
	system time =       0.04 seconds =       0.00 minutes
	total time  =          7 seconds =       0.12 minutes


Properties will be evaluated at   0.000000,   0.000000,   0.000000 Bohr

Properties computed using the  density matrix

  Nuclear Dipole Moment: (a.u.)
     X:    -0.7699      Y:     0.3417      Z:    -2.1204

  Electronic Dipole Moment: (a.u.)
     X:     0.5090      Y:    -0.2337      Z:     1.3938

  Dipole Moment: (a.u.)
     X:    -0.2609      Y:     0.1080      Z:    -0.7267     Total:     0.7796

  Dipole Moment: (Debye)
     X:    -0.6632      Y:     0.2744      Z:    -1.8470     Total:     1.9815

  Quadrupole Moment: (Debye Ang)
    XX:   -31.0643     YY:   -38.4728     ZZ:   -36.4676
    XY:    -1.2575     XZ:    -2.6846     YZ:     0.3193

  Traceless Quadrupole Moment: (Debye Ang)
    XX:     4.2706     YY:    -3.1379     ZZ:    -1.1327
    XY:    -1.2575     XZ:    -2.6846     YZ:     0.3193

  Mulliken Charges: (a.u.)
   Center  Symbol    Alpha    Beta     Spin     Total
       1     H     0.43206  0.43206  0.00000  0.13588
       2     C     3.07929  3.07929  0.00000 -0.15858
       3     O     4.29570  4.29570  0.00000 -0.59140
       4     H     0.41077  0.41077  0.00000  0.17847
       5     H     0.42993  0.42993  0.00000  0.14014
       6     C     2.99312  2.99312  0.00000  0.01376
       7     C     2.99385  2.99385  0.00000  0.01230
       8     H     0.42734  0.42734  0.00000  0.14533
       9     H     0.43181  0.43181  0.00000  0.13638
      10     O     4.29619  4.29619  0.00000 -0.59239
      11     H     0.43116  0.43116  0.00000  0.13769
      12     H     0.42763  0.42763  0.00000  0.14475
      13     C     3.07815  3.07815  0.00000 -0.15630
      14     H     0.43353  0.43353  0.00000  0.13294
      15     H     0.42684  0.42684  0.00000  0.14632
      16     H     0.41264  0.41264  0.00000  0.17471

   Total alpha = 25.00000, Total beta = 25.00000, Total charge =  0.00000


*** PSI4 exiting successfully. Buy a developer a beer!
