    -----------------------------------------------------------------------
          Psi4: An Open-Source Ab Initio Electronic Structure Package
                              Psi4 (no tag) Driver

                          Git: Rev {detached?}  

    J. M. Turney, A. C. Simmonett, R. M. Parrish, E. G. Hohenstein,
    F. A. Evangelista, J. T. Fermann, B. J. Mintz, L. A. Burns, J. J. Wilke,
    M. L. Abrams, N. J. Russ, M. L. Leininger, C. L. Janssen, E. T. Seidl,
    W. D. Allen, H. F. Schaefer, R. A. King, E. F. Valeev, C. D. Sherrill,
    and T. D. Crawford, WIREs Comput. Mol. Sci. 2, 556-565 (2012)
    (doi: 10.1002/wcms.93)

                         Additional Contributions by
    A. E. DePrince, M. Saitow, U. Bozkaya, A. Yu. Sokolov
    -----------------------------------------------------------------------


    Psi4 started on: Tue Jul  5 16:25:30 2016

    Process ID:  30455
    PSI4DATADIR: /export131/home/mjharvey/miniconda3/share
    Memory level set to 256.000 MB

  ==> Input File <==

--------------------------------------------------------------------------
set {
	reference rhf
	basis 6-31G*
}


set_num_threads( 1 )
memory 2 gb

molecule MOL {
0 1

H	 1.459103	 0.593459	 -2.060296
O	 0.618456	 0.433426	 -1.656290
C	 0.702312	 0.627605	 -0.264544
C	 -0.714990	 0.596302	 0.266387
H	 1.153583	 1.589617	 -0.037075
H	 1.296925	 -0.154212	 0.203133
O	 -1.405996	 -0.526611	 -0.195820
H	 -1.257453	 1.468809	 -0.075599
H	 -0.688972	 0.618407	 1.353696
H	 -0.806652	 -1.261800	 -0.178536

	symmetry c1
}
set optking {
	frozen_dihedral = ("
		5 3 4 7
	")
}

ee = energy('scf')
oeprop('DIPOLE', 'QUADRUPOLE', 'MULLIKEN_CHARGES')
f=open( 'psi4out.xyz', 'w' )
f.write( "10  " )
f.write( str(ee) + "\n" )
f.write( MOL.save_string_xyz() )
f.close()
--------------------------------------------------------------------------

  Memory set to   2.000 GiB by Python script.

*** tstart() called on cx1-49-4-2.cx1.hpc.ic.ac.uk
*** at Tue Jul  5 16:25:30 2016


         ---------------------------------------------------------
                                   SCF
            by Justin Turney, Rob Parrish, and Andy Simmonett
                              RHF Reference
                        1 Threads,   2000 MiB Core
         ---------------------------------------------------------

  ==> Geometry <==

    Molecular point group: c1
    Full point group: C1

    Geometry (in Angstrom), charge = 0, multiplicity = 1:

       Center              X                  Y                   Z               Mass       
    ------------   -----------------  -----------------  -----------------  -----------------
           H          1.645817836747     0.334370555032    -1.570213810569     1.007825032070
           O          0.805170836747     0.174337555032    -1.166207810569    15.994914619560
           C          0.889026836747     0.368516555032     0.225538189431    12.000000000000
           C         -0.528275163253     0.337213555032     0.756469189431    12.000000000000
           H          1.340297836747     1.330528555032     0.453007189431     1.007825032070
           H          1.483639836747    -0.413300444968     0.693215189431     1.007825032070
           O         -1.219281163253    -0.785699444968     0.294262189431    15.994914619560
           H         -1.070738163253     1.209720555032     0.414483189431     1.007825032070
           H         -0.502257163253     0.359318555032     1.843778189431     1.007825032070
           H         -0.619937163253    -1.520888444968     0.311546189431     1.007825032070

  Running in c1 symmetry.

  Rotational constants: A =      0.51080  B =      0.19594  C =      0.15944 [cm^-1]
  Rotational constants: A =  15313.34592  B =   5874.00257  C =   4779.75605 [MHz]
  Nuclear repulsion =  134.847906850131352

  Charge       = 0
  Multiplicity = 1
  Electrons    = 34
  Nalpha       = 17
  Nbeta        = 17

  ==> Algorithm <==

  SCF Algorithm Type is DF.
  DIIS enabled.
  MOM disabled.
  Fractional occupation disabled.
  Guess Type is CORE.
  Energy threshold   = 1.00e-06
  Density threshold  = 1.00e-06
  Integral threshold = 0.00e+00

  ==> Primary Basis <==

  Basis Set: 6-31G*
    Number of shells: 36
    Number of basis function: 72
    Number of Cartesian functions: 72
    Spherical Harmonics?: false
    Max angular momentum: 2

  ==> Pre-Iterations <==

   -------------------------------------------------------
    Irrep   Nso     Nmo     Nalpha   Nbeta   Ndocc  Nsocc
   -------------------------------------------------------
     A         72      72       0       0       0       0
   -------------------------------------------------------
    Total      72      72      17      17      17       0
   -------------------------------------------------------

 OEINTS: Overlap, kinetic, potential, dipole, and quadrupole integrals
         stored in file 35.

  ==> Integral Setup <==

  ==> DFJK: Density-Fitted J/K Matrices <==

    J tasked:                  Yes
    K tasked:                  Yes
    wK tasked:                  No
    OpenMP threads:              1
    Integrals threads:           1
    Memory (MB):              1430
    Algorithm:                Core
    Integral Cache:           NONE
    Schwarz Cutoff:          1E-12
    Fitting Condition:       1E-12

   => Auxiliary Basis Set <=

  Basis Set: 
    Number of shells: 150
    Number of basis function: 474
    Number of Cartesian functions: 474
    Spherical Harmonics?: false
    Max angular momentum: 3

  Minimum eigenvalue in the overlap matrix is 4.7620651196E-03.
  Using Symmetric Orthogonalization.
  SCF Guess: Core (One-Electron) Hamiltonian.

  ==> Iterations <==

                           Total Energy        Delta E     RMS |[F,P]|

   @DF-RHF iter   1:  -200.57332804208434   -2.00573e+02   8.42713e-02 
   @DF-RHF iter   2:  -191.25663006124242    9.31670e+00   7.75839e-02 DIIS
   @DF-RHF iter   3:  -223.73129047760645   -3.24747e+01   4.00189e-02 DIIS
   @DF-RHF iter   4:  -228.39069410202515   -4.65940e+00   1.40336e-02 DIIS
   @DF-RHF iter   5:  -228.85900501444556   -4.68311e-01   5.04478e-03 DIIS
   @DF-RHF iter   6:  -228.91225882804989   -5.32538e-02   1.22303e-03 DIIS
   @DF-RHF iter   7:  -228.91640686432962   -4.14804e-03   4.48780e-04 DIIS
   @DF-RHF iter   8:  -228.91699623931871   -5.89375e-04   1.09914e-04 DIIS
   @DF-RHF iter   9:  -228.91703685455624   -4.06152e-05   3.90553e-05 DIIS
   @DF-RHF iter  10:  -228.91704212922596   -5.27467e-06   9.96258e-06 DIIS
   @DF-RHF iter  11:  -228.91704252193549   -3.92710e-07   1.71421e-06 DIIS
   @DF-RHF iter  12:  -228.91704253836227   -1.64268e-08   6.20160e-07 DIIS

  ==> Post-Iterations <==

    Orbital Energies (a.u.)
    -----------------------

    Doubly Occupied:                                                      

       1A    -20.561206     2A    -20.549292     3A    -11.279754  
       4A    -11.268808     5A     -1.377903     6A     -1.348788  
       7A     -1.002721     8A     -0.846752     9A     -0.718433  
      10A     -0.677261    11A     -0.657083    12A     -0.593383  
      13A     -0.571551    14A     -0.543531    15A     -0.475732  
      16A     -0.449831    17A     -0.435273  

    Virtual:                                                              

      18A      0.212927    19A      0.255166    20A      0.276166  
      21A      0.295553    22A      0.312370    23A      0.348550  
      24A      0.381801    25A      0.422497    26A      0.436294  
      27A      0.749738    28A      0.805657    29A      0.816582  
      30A      0.826702    31A      0.900982    32A      0.914196  
      33A      1.069986    34A      1.084056    35A      1.120116  
      36A      1.138539    37A      1.152366    38A      1.189605  
      39A      1.210798    40A      1.234480    41A      1.287109  
      42A      1.299389    43A      1.316839    44A      1.376652  
      45A      1.466520    46A      1.665766    47A      1.696301  
      48A      1.719902    49A      1.785071    50A      1.880945  
      51A      1.986613    52A      2.019418    53A      2.094717  
      54A      2.160869    55A      2.248761    56A      2.369798  
      57A      2.422647    58A      2.462522    59A      2.479873  
      60A      2.666186    61A      2.722917    62A      2.747973  
      63A      2.788033    64A      2.840486    65A      2.891136  
      66A      3.047823    67A      3.185713    68A      3.241031  
      69A      4.133230    70A      4.223027    71A      4.627086  
      72A      4.855503  

    Final Occupation by Irrep:
              A 
    DOCC [    17 ]

  Energy converged.

  @DF-RHF Final Energy:  -228.91704253836227

   => Energetics <=

    Nuclear Repulsion Energy =            134.8479068501313520
    One-Electron Energy =                -580.8153981244288389
    Two-Electron Energy =                 217.0504487359353334
    DFT Exchange-Correlation Energy =       0.0000000000000000
    Empirical Dispersion Energy =           0.0000000000000000
    PCM Polarization Energy =               0.0000000000000000
    EFP Energy =                            0.0000000000000000
    Total Energy =                       -228.9170425383621250

    Alert: EFP and PCM quantities not currently incorporated into SCF psivars.

Properties will be evaluated at   0.000000,   0.000000,   0.000000 Bohr
  ==> Properties <==


Properties computed using the SCF density matrix

  Nuclear Dipole Moment: (a.u.)
     X:     2.1325      Y:     1.2155      Z:     2.0074

  Electronic Dipole Moment: (a.u.)
     X:    -0.8295      Y:    -0.9950      Z:    -1.5304

  Dipole Moment: (a.u.)
     X:     1.3030      Y:     0.2205      Z:     0.4771     Total:     1.4050

  Dipole Moment: (Debye)
     X:     3.3119      Y:     0.5605      Z:     1.2125     Total:     3.5711


  Saving occupied orbitals to File 180.

*** tstop() called on cx1-49-4-2.cx1.hpc.ic.ac.uk at Tue Jul  5 16:25:33 2016
Module time:
	user time   =       2.26 seconds =       0.04 minutes
	system time =       0.03 seconds =       0.00 minutes
	total time  =          3 seconds =       0.05 minutes
Total time:
	user time   =       2.26 seconds =       0.04 minutes
	system time =       0.03 seconds =       0.00 minutes
	total time  =          3 seconds =       0.05 minutes


Properties will be evaluated at   0.000000,   0.000000,   0.000000 Bohr

Properties computed using the  density matrix

  Nuclear Dipole Moment: (a.u.)
     X:     2.1325      Y:     1.2155      Z:     2.0074

  Electronic Dipole Moment: (a.u.)
     X:    -0.8295      Y:    -0.9950      Z:    -1.5304

  Dipole Moment: (a.u.)
     X:     1.3030      Y:     0.2205      Z:     0.4771     Total:     1.4050

  Dipole Moment: (Debye)
     X:     3.3119      Y:     0.5605      Z:     1.2125     Total:     3.5711

  Quadrupole Moment: (Debye Ang)
    XX:   -24.5584     YY:   -22.1149     ZZ:   -24.7861
    XY:    -0.8523     XZ:    -1.8834     YZ:    -0.4532

  Traceless Quadrupole Moment: (Debye Ang)
    XX:    -0.7386     YY:     1.7049     ZZ:    -0.9663
    XY:    -0.8523     XZ:    -1.8834     YZ:    -0.4532

  Mulliken Charges: (a.u.)
   Center  Symbol    Alpha    Beta     Spin     Total
       1     H     0.27981  0.27981  0.00000  0.44038
       2     O     4.36316  4.36316  0.00000 -0.72631
       3     C     3.02572  3.02572  0.00000 -0.05145
       4     C     2.98835  2.98835  0.00000  0.02329
       5     H     0.42534  0.42534  0.00000  0.14933
       6     H     0.43150  0.43150  0.00000  0.13700
       7     O     4.36211  4.36211  0.00000 -0.72422
       8     H     0.41183  0.41183  0.00000  0.17634
       9     H     0.43100  0.43100  0.00000  0.13800
      10     H     0.28118  0.28118  0.00000  0.43765

   Total alpha = 17.00000, Total beta = 17.00000, Total charge = -0.00000


*** PSI4 exiting successfully. Buy a developer a beer!
