    -----------------------------------------------------------------------
          Psi4: An Open-Source Ab Initio Electronic Structure Package
                              Psi4 (no tag) Driver

                          Git: Rev {detached?}  

    J. M. Turney, A. C. Simmonett, R. M. Parrish, E. G. Hohenstein,
    F. A. Evangelista, J. T. Fermann, B. J. Mintz, L. A. Burns, J. J. Wilke,
    M. L. Abrams, N. J. Russ, M. L. Leininger, C. L. Janssen, E. T. Seidl,
    W. D. Allen, H. F. Schaefer, R. A. King, E. F. Valeev, C. D. Sherrill,
    and T. D. Crawford, WIREs Comput. Mol. Sci. 2, 556-565 (2012)
    (doi: 10.1002/wcms.93)

                         Additional Contributions by
    A. E. DePrince, M. Saitow, U. Bozkaya, A. Yu. Sokolov
    -----------------------------------------------------------------------


    Psi4 started on: Tue Jul  5 16:43:26 2016

    Process ID:  30027
    PSI4DATADIR: /export131/home/mjharvey/miniconda3/share
    Memory level set to 256.000 MB

  ==> Input File <==

--------------------------------------------------------------------------
set {
	reference rhf
	basis 6-31G*
}


set_num_threads( 1 )
memory 2 gb

molecule MOL {
0 1

H	 0.075655	 1.724700	 0.560390
N	 -0.456516	 0.876527	 0.541107
C	 0.411825	 -0.271767	 0.350028
H	 -1.096509	 0.942907	 -0.226429
C	 0.971803	 -0.268062	 -1.056935
H	 1.245876	 -0.313000	 1.051925
H	 -0.173567	 -1.175924	 0.486406
O	 -0.088814	 -0.446451	 -1.951562
H	 1.476952	 0.676258	 -1.258733
H	 1.695616	 -1.072886	 -1.164576
C	 -0.541186	 0.727436	 -2.547315
H	 0.319245	 1.242355	 -2.952548
H	 -1.239417	 0.519776	 -3.356223
H	 -1.032759	 1.375954	 -1.825104

	symmetry c1
}
set optking {
	frozen_dihedral = ("
		8 5 3 6,
		6 3 2 4,
		5 8 11 13
	")
}

ee = energy('scf')
oeprop('DIPOLE', 'QUADRUPOLE', 'MULLIKEN_CHARGES')
f=open( 'psi4out.xyz', 'w' )
f.write( "14  " )
f.write( str(ee) + "\n" )
f.write( MOL.save_string_xyz() )
f.close()
--------------------------------------------------------------------------

  Memory set to   2.000 GiB by Python script.

*** tstart() called on cx1-3-6-4.cx1.hpc.ic.ac.uk
*** at Tue Jul  5 16:43:27 2016


         ---------------------------------------------------------
                                   SCF
            by Justin Turney, Rob Parrish, and Andy Simmonett
                              RHF Reference
                        1 Threads,   2000 MiB Core
         ---------------------------------------------------------

  ==> Geometry <==

    Molecular point group: c1
    Full point group: C1

    Geometry (in Angstrom), charge = 0, multiplicity = 1:

       Center              X                  Y                   Z               Mass       
    ------------   -----------------  -----------------  -----------------  -----------------
           H          0.028003231835     1.573701391508     1.512074177589     1.007825032070
           N         -0.504167768165     0.725528391508     1.492791177589    14.003074004780
           C          0.364173231835    -0.422765608492     1.301712177589    12.000000000000
           H         -1.144160768165     0.791908391508     0.725255177589     1.007825032070
           C          0.924151231835    -0.419060608492    -0.105250822411    12.000000000000
           H          1.198224231835    -0.463998608492     2.003609177589     1.007825032070
           H         -0.221218768165    -1.326922608492     1.438090177589     1.007825032070
           O         -0.136465768165    -0.597449608492    -0.999877822411    15.994914619560
           H          1.429300231835     0.525259391508    -0.307048822411     1.007825032070
           H          1.647964231835    -1.223884608492    -0.212891822411     1.007825032070
           C         -0.588837768165     0.576437391508    -1.595630822411    12.000000000000
           H          0.271593231835     1.091356391508    -2.000863822411     1.007825032070
           H         -1.287068768165     0.368777391508    -2.404538822411     1.007825032070
           H         -1.080410768165     1.224955391508    -0.873419822411     1.007825032070

  Running in c1 symmetry.

  Rotational constants: A =      0.28110  B =      0.12890  C =      0.10029 [cm^-1]
  Rotational constants: A =   8427.20259  B =   3864.38551  C =   3006.64469 [MHz]
  Nuclear repulsion =  200.353113277398563

  Charge       = 0
  Multiplicity = 1
  Electrons    = 42
  Nalpha       = 21
  Nbeta        = 21

  ==> Algorithm <==

  SCF Algorithm Type is DF.
  DIIS enabled.
  MOM disabled.
  Fractional occupation disabled.
  Guess Type is CORE.
  Energy threshold   = 1.00e-06
  Density threshold  = 1.00e-06
  Integral threshold = 0.00e+00

  ==> Primary Basis <==

  Basis Set: 6-31G*
    Number of shells: 48
    Number of basis function: 93
    Number of Cartesian functions: 93
    Spherical Harmonics?: false
    Max angular momentum: 2

  ==> Pre-Iterations <==

   -------------------------------------------------------
    Irrep   Nso     Nmo     Nalpha   Nbeta   Ndocc  Nsocc
   -------------------------------------------------------
     A         93      93       0       0       0       0
   -------------------------------------------------------
    Total      93      93      21      21      21       0
   -------------------------------------------------------

 OEINTS: Overlap, kinetic, potential, dipole, and quadrupole integrals
         stored in file 35.

  ==> Integral Setup <==

  ==> DFJK: Density-Fitted J/K Matrices <==

    J tasked:                  Yes
    K tasked:                  Yes
    wK tasked:                  No
    OpenMP threads:              1
    Integrals threads:           1
    Memory (MB):              1430
    Algorithm:                Core
    Integral Cache:           NONE
    Schwarz Cutoff:          1E-12
    Fitting Condition:       1E-12

   => Auxiliary Basis Set <=

  Basis Set: 
    Number of shells: 201
    Number of basis function: 630
    Number of Cartesian functions: 630
    Spherical Harmonics?: false
    Max angular momentum: 3

  Minimum eigenvalue in the overlap matrix is 4.8043715594E-03.
  Using Symmetric Orthogonalization.
  SCF Guess: Core (One-Electron) Hamiltonian.

  ==> Iterations <==

                           Total Energy        Delta E     RMS |[F,P]|

   @DF-RHF iter   1:  -203.12199025335946   -2.03122e+02   7.85221e-02 
   @DF-RHF iter   2:  -165.39681437037842    3.77252e+01   7.63489e-02 DIIS
   @DF-RHF iter   3:  -228.52500945431672   -6.31282e+01   4.41191e-02 DIIS
   @DF-RHF iter   4:  -230.16759858427531   -1.64259e+00   5.07848e-02 DIIS
   @DF-RHF iter   5:  -247.97753866317743   -1.78099e+01   5.31317e-03 DIIS
   @DF-RHF iter   6:  -248.08167349699585   -1.04135e-01   2.39310e-03 DIIS
   @DF-RHF iter   7:  -248.10382130264713   -2.21478e-02   6.61769e-04 DIIS
   @DF-RHF iter   8:  -248.10652761081093   -2.70631e-03   2.73763e-04 DIIS
   @DF-RHF iter   9:  -248.10692838715801   -4.00776e-04   1.16330e-04 DIIS
   @DF-RHF iter  10:  -248.10700258886038   -7.42017e-05   3.57898e-05 DIIS
   @DF-RHF iter  11:  -248.10700905845522   -6.46959e-06   8.23078e-06 DIIS
   @DF-RHF iter  12:  -248.10700947547372   -4.17018e-07   2.69325e-06 DIIS
   @DF-RHF iter  13:  -248.10700953186029   -5.63866e-08   6.45607e-07 DIIS

  ==> Post-Iterations <==

    Orbital Energies (a.u.)
    -----------------------

    Doubly Occupied:                                                      

       1A    -20.561327     2A    -15.533178     3A    -11.274647  
       4A    -11.268739     5A    -11.241452     6A     -1.388769  
       7A     -1.181329     8A     -1.005242     9A     -0.912324  
      10A     -0.828272    11A     -0.703467    12A     -0.669826  
      13A     -0.650650    14A     -0.630272    15A     -0.590978  
      16A     -0.558483    17A     -0.524482    18A     -0.512229  
      19A     -0.475868    20A     -0.440585    21A     -0.368144  

    Virtual:                                                              

      22A      0.226212    23A      0.260426    24A      0.270458  
      25A      0.290837    26A      0.301966    27A      0.324636  
      28A      0.325911    29A      0.331180    30A      0.353492  
      31A      0.409198    32A      0.433520    33A      0.444378  
      34A      0.477882    35A      0.746764    36A      0.764655  
      37A      0.769606    38A      0.796422    39A      0.811933  
      40A      0.828861    41A      0.852319    42A      0.914720  
      43A      0.992820    44A      1.007838    45A      1.064475  
      46A      1.080485    47A      1.104329    48A      1.130774  
      49A      1.144842    50A      1.163325    51A      1.194355  
      52A      1.212366    53A      1.218569    54A      1.247333  
      55A      1.258895    56A      1.266116    57A      1.330844  
      58A      1.406955    59A      1.452178    60A      1.570108  
      61A      1.619669    62A      1.716202    63A      1.753732  
      64A      1.786296    65A      1.876707    66A      1.911221  
      67A      2.003758    68A      2.071255    69A      2.206844  
      70A      2.239727    71A      2.347261    72A      2.366923  
      73A      2.381742    74A      2.409563    75A      2.451262  
      76A      2.480497    77A      2.538016    78A      2.589186  
      79A      2.628483    80A      2.700699    81A      2.754971  
      82A      2.831149    83A      2.885374    84A      2.916890  
      85A      3.015062    86A      3.080868    87A      3.148541  
      88A      3.304940    89A      4.252244    90A      4.376466  
      91A      4.654565    92A      4.719501    93A      4.895896  

    Final Occupation by Irrep:
              A 
    DOCC [    21 ]

  Energy converged.

  @DF-RHF Final Energy:  -248.10700953186029

   => Energetics <=

    Nuclear Repulsion Energy =            200.3531132773985632
    One-Electron Energy =                -734.2796941423293902
    Two-Electron Energy =                 285.8195713330700869
    DFT Exchange-Correlation Energy =       0.0000000000000000
    Empirical Dispersion Energy =           0.0000000000000000
    PCM Polarization Energy =               0.0000000000000000
    EFP Energy =                            0.0000000000000000
    Total Energy =                       -248.1070095318607969

    Alert: EFP and PCM quantities not currently incorporated into SCF psivars.

Properties will be evaluated at   0.000000,   0.000000,   0.000000 Bohr
  ==> Properties <==


Properties computed using the SCF density matrix

  Nuclear Dipole Moment: (a.u.)
     X:     0.7904      Y:     2.3960      Z:    -0.1214

  Electronic Dipole Moment: (a.u.)
     X:    -0.2727      Y:    -1.8227      Z:    -0.3194

  Dipole Moment: (a.u.)
     X:     0.5177      Y:     0.5733      Z:    -0.4408     Total:     0.8894

  Dipole Moment: (Debye)
     X:     1.3157      Y:     1.4572      Z:    -1.1204     Total:     2.2605


  Saving occupied orbitals to File 180.

*** tstop() called on cx1-3-6-4.cx1.hpc.ic.ac.uk at Tue Jul  5 16:43:33 2016
Module time:
	user time   =       4.90 seconds =       0.08 minutes
	system time =       0.04 seconds =       0.00 minutes
	total time  =          6 seconds =       0.10 minutes
Total time:
	user time   =       4.90 seconds =       0.08 minutes
	system time =       0.04 seconds =       0.00 minutes
	total time  =          6 seconds =       0.10 minutes


Properties will be evaluated at   0.000000,   0.000000,   0.000000 Bohr

Properties computed using the  density matrix

  Nuclear Dipole Moment: (a.u.)
     X:     0.7904      Y:     2.3960      Z:    -0.1214

  Electronic Dipole Moment: (a.u.)
     X:    -0.2727      Y:    -1.8227      Z:    -0.3194

  Dipole Moment: (a.u.)
     X:     0.5177      Y:     0.5733      Z:    -0.4408     Total:     0.8894

  Dipole Moment: (Debye)
     X:     1.3157      Y:     1.4572      Z:    -1.1204     Total:     2.2605

  Quadrupole Moment: (Debye Ang)
    XX:   -31.2503     YY:   -31.4011     ZZ:   -36.4210
    XY:    -0.4464     XZ:     3.8274     YZ:    -3.1279

  Traceless Quadrupole Moment: (Debye Ang)
    XX:     1.7738     YY:     1.6230     ZZ:    -3.3968
    XY:    -0.4464     XZ:     3.8274     YZ:    -3.1279

  Mulliken Charges: (a.u.)
   Center  Symbol    Alpha    Beta     Spin     Total
       1     H     0.33705  0.33705  0.00000  0.32589
       2     N     3.92387  3.92387  0.00000 -0.84774
       3     C     3.06686  3.06686  0.00000 -0.13371
       4     H     0.31943  0.31943  0.00000  0.36114
       5     C     3.00544  3.00544  0.00000 -0.01089
       6     H     0.42217  0.42217  0.00000  0.15565
       7     H     0.40888  0.40888  0.00000  0.18224
       8     O     4.30519  4.30519  0.00000 -0.61039
       9     H     0.43411  0.43411  0.00000  0.13178
      10     H     0.41832  0.41832  0.00000  0.16336
      11     C     3.08012  3.08012  0.00000 -0.16023
      12     H     0.42549  0.42549  0.00000  0.14902
      13     H     0.40955  0.40955  0.00000  0.18090
      14     H     0.44352  0.44352  0.00000  0.11297

   Total alpha = 21.00000, Total beta = 21.00000, Total charge = -0.00000


*** PSI4 exiting successfully. Buy a developer a beer!
