    -----------------------------------------------------------------------
          Psi4: An Open-Source Ab Initio Electronic Structure Package
                              Psi4 (no tag) Driver

                          Git: Rev {detached?}  

    J. M. Turney, A. C. Simmonett, R. M. Parrish, E. G. Hohenstein,
    F. A. Evangelista, J. T. Fermann, B. J. Mintz, L. A. Burns, J. J. Wilke,
    M. L. Abrams, N. J. Russ, M. L. Leininger, C. L. Janssen, E. T. Seidl,
    W. D. Allen, H. F. Schaefer, R. A. King, E. F. Valeev, C. D. Sherrill,
    and T. D. Crawford, WIREs Comput. Mol. Sci. 2, 556-565 (2012)
    (doi: 10.1002/wcms.93)

                         Additional Contributions by
    A. E. DePrince, M. Saitow, U. Bozkaya, A. Yu. Sokolov
    -----------------------------------------------------------------------


    Psi4 started on: Tue Jul  5 16:33:58 2016

    Process ID:  16403
    PSI4DATADIR: /export131/home/mjharvey/miniconda3/share
    Memory level set to 256.000 MB

  ==> Input File <==

--------------------------------------------------------------------------
set {
	reference rhf
	basis 6-31G*
}


set_num_threads( 1 )
memory 2 gb

molecule MOL {
0 1

H	 0.574403	 1.607112	 -1.538529
N	 1.449140	 1.245334	 -1.210713
C	 1.267428	 0.496480	 0.024474
H	 2.049504	 2.033544	 -1.058387
C	 -0.016086	 -0.325158	 -0.029487
H	 1.200461	 1.212940	 0.837637
H	 2.109120	 -0.161270	 0.255341
C	 -1.282277	 0.529072	 0.046735
H	 -0.012495	 -0.908639	 -0.945788
H	 -0.015903	 -1.041248	 0.791956
C	 -1.313422	 1.640626	 -1.001683
H	 -1.361066	 0.968841	 1.038895
H	 -2.157618	 -0.105503	 -0.075938
H	 -0.469051	 2.313549	 -0.883644
H	 -2.221045	 2.230972	 -0.922727
H	 -1.270971	 1.231908	 -2.007351

	symmetry c1
}
set optking {
	frozen_dihedral = ("
		6 3 5 9,
		12 8 5 9
	")
}

ee = energy('scf')
oeprop('DIPOLE', 'QUADRUPOLE', 'MULLIKEN_CHARGES')
f=open( 'psi4out.xyz', 'w' )
f.write( "16  " )
f.write( str(ee) + "\n" )
f.write( MOL.save_string_xyz() )
f.close()
--------------------------------------------------------------------------

  Memory set to   2.000 GiB by Python script.

*** tstart() called on cx1-3-16-4.cx1.hpc.ic.ac.uk
*** at Tue Jul  5 16:33:58 2016


         ---------------------------------------------------------
                                   SCF
            by Justin Turney, Rob Parrish, and Andy Simmonett
                              RHF Reference
                        1 Threads,   2000 MiB Core
         ---------------------------------------------------------

  ==> Geometry <==

    Molecular point group: c1
    Full point group: C1

    Geometry (in Angstrom), charge = 0, multiplicity = 1:

       Center              X                  Y                   Z               Mass       
    ------------   -----------------  -----------------  -----------------  -----------------
           H          0.539197392696     0.854792856751    -1.086792313245     1.007825032070
           N          1.413934392696     0.493014856751    -0.758976313245    14.003074004780
           C          1.232222392696    -0.255839143249     0.476210686755    12.000000000000
           H          2.014298392696     1.281224856751    -0.606650313245     1.007825032070
           C         -0.051291607304    -1.077477143249     0.422249686755    12.000000000000
           H          1.165255392696     0.460620856751     1.289373686755     1.007825032070
           H          2.073914392696    -0.913589143249     0.707077686755     1.007825032070
           C         -1.317482607304    -0.223247143249     0.498471686755    12.000000000000
           H         -0.047700607304    -1.660958143249    -0.494051313245     1.007825032070
           H         -0.051108607304    -1.793567143249     1.243692686755     1.007825032070
           C         -1.348627607304     0.888306856751    -0.549946313245    12.000000000000
           H         -1.396271607304     0.216521856751     1.490631686755     1.007825032070
           H         -2.192823607304    -0.857822143249     0.375798686755     1.007825032070
           H         -0.504256607304     1.561229856751    -0.431907313245     1.007825032070
           H         -2.256250607304     1.478652856751    -0.470990313245     1.007825032070
           H         -1.306176607304     0.479588856751    -1.555614313245     1.007825032070

  Running in c1 symmetry.

  Rotational constants: A =      0.23084  B =      0.13571  C =      0.09585 [cm^-1]
  Rotational constants: A =   6920.27009  B =   4068.34110  C =   2873.55602 [MHz]
  Nuclear repulsion =  197.519999456307744

  Charge       = 0
  Multiplicity = 1
  Electrons    = 42
  Nalpha       = 21
  Nbeta        = 21

  ==> Algorithm <==

  SCF Algorithm Type is DF.
  DIIS enabled.
  MOM disabled.
  Fractional occupation disabled.
  Guess Type is CORE.
  Energy threshold   = 1.00e-06
  Density threshold  = 1.00e-06
  Integral threshold = 0.00e+00

  ==> Primary Basis <==

  Basis Set: 6-31G*
    Number of shells: 52
    Number of basis function: 97
    Number of Cartesian functions: 97
    Spherical Harmonics?: false
    Max angular momentum: 2

  ==> Pre-Iterations <==

   -------------------------------------------------------
    Irrep   Nso     Nmo     Nalpha   Nbeta   Ndocc  Nsocc
   -------------------------------------------------------
     A         97      97       0       0       0       0
   -------------------------------------------------------
    Total      97      97      21      21      21       0
   -------------------------------------------------------

 OEINTS: Overlap, kinetic, potential, dipole, and quadrupole integrals
         stored in file 35.

  ==> Integral Setup <==

  ==> DFJK: Density-Fitted J/K Matrices <==

    J tasked:                  Yes
    K tasked:                  Yes
    wK tasked:                  No
    OpenMP threads:              1
    Integrals threads:           1
    Memory (MB):              1430
    Algorithm:                Core
    Integral Cache:           NONE
    Schwarz Cutoff:          1E-12
    Fitting Condition:       1E-12

   => Auxiliary Basis Set <=

  Basis Set: 
    Number of shells: 219
    Number of basis function: 680
    Number of Cartesian functions: 680
    Spherical Harmonics?: false
    Max angular momentum: 3

  Minimum eigenvalue in the overlap matrix is 4.7969969992E-03.
  Using Symmetric Orthogonalization.
  SCF Guess: Core (One-Electron) Hamiltonian.

  ==> Iterations <==

                           Total Energy        Delta E     RMS |[F,P]|

   @DF-RHF iter   1:  -164.09414047813777   -1.64094e+02   7.76398e-02 
   @DF-RHF iter   2:  -126.84405712564796    3.72501e+01   6.90996e-02 DIIS
   @DF-RHF iter   3:  -175.16570585732535   -4.83216e+01   5.06048e-02 DIIS
   @DF-RHF iter   4:  -190.51997846301521   -1.53543e+01   5.44974e-02 DIIS
   @DF-RHF iter   5:  -211.92721104061155   -2.14072e+01   8.23056e-03 DIIS
   @DF-RHF iter   6:  -212.24989668431039   -3.22686e-01   2.72063e-03 DIIS
   @DF-RHF iter   7:  -212.28412823299288   -3.42315e-02   7.74434e-04 DIIS
   @DF-RHF iter   8:  -212.28761490675032   -3.48667e-03   1.88145e-04 DIIS
   @DF-RHF iter   9:  -212.28789446121436   -2.79554e-04   4.54763e-05 DIIS
   @DF-RHF iter  10:  -212.28790993456619   -1.54734e-05   1.33183e-05 DIIS
   @DF-RHF iter  11:  -212.28791161905980   -1.68449e-06   4.76006e-06 DIIS
   @DF-RHF iter  12:  -212.28791176106051   -1.42001e-07   1.81051e-06 DIIS
   @DF-RHF iter  13:  -212.28791178506214   -2.40016e-08   4.27248e-07 DIIS

  ==> Post-Iterations <==

    Orbital Energies (a.u.)
    -----------------------

    Doubly Occupied:                                                      

       1A    -15.519490     2A    -11.238516     3A    -11.221108  
       4A    -11.215696     5A    -11.214070     6A     -1.179907  
       7A     -1.059191     8A     -0.973080     9A     -0.855164  
      10A     -0.789940    11A     -0.672386    12A     -0.645976  
      13A     -0.600842    14A     -0.584722    15A     -0.556783  
      16A     -0.534081    17A     -0.529499    18A     -0.473759  
      19A     -0.468001    20A     -0.452326    21A     -0.367377  

    Virtual:                                                              

      22A      0.227254    23A      0.259510    24A      0.275907  
      25A      0.290665    26A      0.294863    27A      0.320625  
      28A      0.324217    29A      0.338329    30A      0.346542  
      31A      0.360376    32A      0.385299    33A      0.408528  
      34A      0.415081    35A      0.467166    36A      0.480184  
      37A      0.711212    38A      0.731322    39A      0.737744  
      40A      0.769992    41A      0.793563    42A      0.843913  
      43A      0.921992    44A      0.924159    45A      0.946366  
      46A      0.979600    47A      1.005533    48A      1.064167  
      49A      1.081234    50A      1.128834    51A      1.136719  
      52A      1.152433    53A      1.159986    54A      1.179531  
      55A      1.202287    56A      1.220006    57A      1.235295  
      58A      1.246523    59A      1.256939    60A      1.267931  
      61A      1.311658    62A      1.349697    63A      1.394831  
      64A      1.461725    65A      1.681383    66A      1.705842  
      67A      1.754894    68A      1.861149    69A      1.906046  
      70A      1.923968    71A      1.982581    72A      2.086194  
      73A      2.198843    74A      2.237662    75A      2.272295  
      76A      2.303066    77A      2.348405    78A      2.364834  
      79A      2.398710    80A      2.495027    81A      2.577689  
      82A      2.621306    83A      2.660061    84A      2.683737  
      85A      2.710689    86A      2.749798    87A      2.811344  
      88A      2.887913    89A      2.966818    90A      2.993370  
      91A      3.057055    92A      3.127704    93A      4.265818  
      94A      4.579213    95A      4.719243    96A      4.869214  
      97A      4.961497  

    Final Occupation by Irrep:
              A 
    DOCC [    21 ]

  Energy converged.

  @DF-RHF Final Energy:  -212.28791178506214

   => Energetics <=

    Nuclear Repulsion Energy =            197.5199994563077439
    One-Electron Energy =                -677.3118356206429098
    Two-Electron Energy =                 267.5039243792730872
    DFT Exchange-Correlation Energy =       0.0000000000000000
    Empirical Dispersion Energy =           0.0000000000000000
    PCM Polarization Energy =               0.0000000000000000
    EFP Energy =                            0.0000000000000000
    Total Energy =                       -212.2879117850620787

    Alert: EFP and PCM quantities not currently incorporated into SCF psivars.

Properties will be evaluated at   0.000000,   0.000000,   0.000000 Bohr
  ==> Properties <==


Properties computed using the SCF density matrix

  Nuclear Dipole Moment: (a.u.)
     X:    -1.8433      Y:     1.0361      Z:     0.4340

  Electronic Dipole Moment: (a.u.)
     X:     1.4959      Y:    -0.7002      Z:    -0.0269

  Dipole Moment: (a.u.)
     X:    -0.3474      Y:     0.3359      Z:     0.4071     Total:     0.6319

  Dipole Moment: (Debye)
     X:    -0.8830      Y:     0.8537      Z:     1.0348     Total:     1.6060


  Saving occupied orbitals to File 180.

*** tstop() called on cx1-3-16-4.cx1.hpc.ic.ac.uk at Tue Jul  5 16:34:08 2016
Module time:
	user time   =       9.21 seconds =       0.15 minutes
	system time =       0.06 seconds =       0.00 minutes
	total time  =         10 seconds =       0.17 minutes
Total time:
	user time   =       9.21 seconds =       0.15 minutes
	system time =       0.06 seconds =       0.00 minutes
	total time  =         10 seconds =       0.17 minutes


Properties will be evaluated at   0.000000,   0.000000,   0.000000 Bohr

Properties computed using the  density matrix

  Nuclear Dipole Moment: (a.u.)
     X:    -1.8433      Y:     1.0361      Z:     0.4340

  Electronic Dipole Moment: (a.u.)
     X:     1.4959      Y:    -0.7002      Z:    -0.0269

  Dipole Moment: (a.u.)
     X:    -0.3474      Y:     0.3359      Z:     0.4071     Total:     0.6319

  Dipole Moment: (Debye)
     X:    -0.8830      Y:     0.8537      Z:     1.0348     Total:     1.6060

  Quadrupole Moment: (Debye Ang)
    XX:   -35.3861     YY:   -32.3483     ZZ:   -36.0188
    XY:     1.6270     XZ:     2.8387     YZ:    -0.9951

  Traceless Quadrupole Moment: (Debye Ang)
    XX:    -0.8017     YY:     2.2361     ZZ:    -1.4344
    XY:     1.6270     XZ:     2.8387     YZ:    -0.9951

  Mulliken Charges: (a.u.)
   Center  Symbol    Alpha    Beta     Spin     Total
       1     H     0.31816  0.31816  0.00000  0.36368
       2     N     3.93157  3.93157  0.00000 -0.86314
       3     C     3.06040  3.06040  0.00000 -0.12080
       4     H     0.33679  0.33679  0.00000  0.32641
       5     C     3.16459  3.16459  0.00000 -0.32918
       6     H     0.43550  0.43550  0.00000  0.12899
       7     H     0.41746  0.41746  0.00000  0.16508
       8     C     3.14874  3.14874  0.00000 -0.29748
       9     H     0.41372  0.41372  0.00000  0.17256
      10     H     0.41912  0.41912  0.00000  0.16175
      11     C     3.26951  3.26951  0.00000 -0.53902
      12     H     0.42094  0.42094  0.00000  0.15812
      13     H     0.41781  0.41781  0.00000  0.16438
      14     H     0.41963  0.41963  0.00000  0.16074
      15     H     0.41364  0.41364  0.00000  0.17271
      16     H     0.41241  0.41241  0.00000  0.17519

   Total alpha = 21.00000, Total beta = 21.00000, Total charge = -0.00000


*** PSI4 exiting successfully. Buy a developer a beer!
