    -----------------------------------------------------------------------
          Psi4: An Open-Source Ab Initio Electronic Structure Package
                              Psi4 (no tag) Driver

                          Git: Rev {detached?}  

    J. M. Turney, A. C. Simmonett, R. M. Parrish, E. G. Hohenstein,
    F. A. Evangelista, J. T. Fermann, B. J. Mintz, L. A. Burns, J. J. Wilke,
    M. L. Abrams, N. J. Russ, M. L. Leininger, C. L. Janssen, E. T. Seidl,
    W. D. Allen, H. F. Schaefer, R. A. King, E. F. Valeev, C. D. Sherrill,
    and T. D. Crawford, WIREs Comput. Mol. Sci. 2, 556-565 (2012)
    (doi: 10.1002/wcms.93)

                         Additional Contributions by
    A. E. DePrince, M. Saitow, U. Bozkaya, A. Yu. Sokolov
    -----------------------------------------------------------------------


    Psi4 started on: Tue Jul  5 16:31:55 2016

    Process ID:  21535
    PSI4DATADIR: /export131/home/mjharvey/miniconda3/share
    Memory level set to 256.000 MB

  ==> Input File <==

--------------------------------------------------------------------------
set {
	reference rhf
	basis 6-31G*
}


set_num_threads( 1 )
memory 2 gb

molecule MOL {
0 1

H	 3.024352	 1.301732	 0.962855
C	 2.356674	 0.500082	 0.659868
C	 0.948573	 1.039929	 0.429791
H	 2.344287	 -0.252385	 1.440511
H	 2.774174	 0.046867	 -0.232782
N	 -0.000257	 -0.000071	 0.054619
H	 0.609234	 1.495416	 1.351614
H	 0.970465	 1.841248	 -0.314584
C	 -1.363055	 0.315058	 0.462241
C	 0.091940	 -0.356708	 -1.354979
C	 -2.412078	 -0.285320	 -0.468531
H	 -1.482241	 1.391144	 0.451970
H	 -1.549931	 -0.001174	 1.492681
C	 -0.319724	 -1.800112	 -1.627672
H	 1.120418	 -0.236126	 -1.670963
H	 -0.497822	 0.325604	 -1.974187
H	 -2.262839	 0.075384	 -1.480151
H	 -2.369300	 -1.368867	 -0.491760
H	 -3.410332	 -0.003975	 -0.144961
H	 0.304912	 -2.479613	 -1.058689
H	 -1.352443	 -1.991413	 -1.356665
H	 -0.210112	 -2.031783	 -2.683437

	symmetry c1
}
ee = energy('scf')
oeprop('DIPOLE', 'QUADRUPOLE', 'MULLIKEN_CHARGES')
f=open( 'psi4out.xyz', 'w' )
f.write( "22  " )
f.write( str(ee) + "\n" )
f.write( MOL.save_string_xyz() )
f.close()
--------------------------------------------------------------------------

  Memory set to   2.000 GiB by Python script.

*** tstart() called on cx1-3-15-2.cx1.hpc.ic.ac.uk
*** at Tue Jul  5 16:31:55 2016


         ---------------------------------------------------------
                                   SCF
            by Justin Turney, Rob Parrish, and Andy Simmonett
                              RHF Reference
                        1 Threads,   2000 MiB Core
         ---------------------------------------------------------

  ==> Geometry <==

    Molecular point group: c1
    Full point group: C1

    Geometry (in Angstrom), charge = 0, multiplicity = 1:

       Center              X                  Y                   Z               Mass       
    ------------   -----------------  -----------------  -----------------  -----------------
           H          3.126985706381     1.390226072788     1.237574582571     1.007825032070
           C          2.459307706381     0.588576072788     0.934587582571    12.000000000000
           C          1.051206706381     1.128423072788     0.704510582571    12.000000000000
           H          2.446920706381    -0.163890927212     1.715230582571     1.007825032070
           H          2.876807706381     0.135361072788     0.041937582571     1.007825032070
           N          0.102376706381     0.088423072788     0.329338582571    14.003074004780
           H          0.711867706381     1.583910072788     1.626333582571     1.007825032070
           H          1.073098706381     1.929742072788    -0.039864417429     1.007825032070
           C         -1.260421293619     0.403552072788     0.736960582571    12.000000000000
           C          0.194573706381    -0.268213927212    -1.080259417429    12.000000000000
           C         -2.309444293619    -0.196825927212    -0.193811417429    12.000000000000
           H         -1.379607293619     1.479638072788     0.726689582571     1.007825032070
           H         -1.447297293619     0.087320072788     1.767400582571     1.007825032070
           C         -0.217090293619    -1.711617927212    -1.352952417429    12.000000000000
           H          1.223051706381    -0.147631927212    -1.396243417429     1.007825032070
           H         -0.395188293619     0.414098072788    -1.699467417429     1.007825032070
           H         -2.160205293619     0.163878072788    -1.205431417429     1.007825032070
           H         -2.266666293619    -1.280372927212    -0.217040417429     1.007825032070
           H         -3.307698293619     0.084519072788     0.129758582571     1.007825032070
           H          0.407545706381    -2.391118927212    -0.783969417429     1.007825032070
           H         -1.249809293619    -1.902918927212    -1.081945417429     1.007825032070
           H         -0.107478293619    -1.943288927212    -2.408717417429     1.007825032070

  Running in c1 symmetry.

  Rotational constants: A =      0.12396  B =      0.06085  C =      0.04503 [cm^-1]
  Rotational constants: A =   3716.28305  B =   1824.31429  C =   1349.87107 [MHz]
  Nuclear repulsion =  342.717692399183818

  Charge       = 0
  Multiplicity = 1
  Electrons    = 58
  Nalpha       = 29
  Nbeta        = 29

  ==> Algorithm <==

  SCF Algorithm Type is DF.
  DIIS enabled.
  MOM disabled.
  Fractional occupation disabled.
  Guess Type is CORE.
  Energy threshold   = 1.00e-06
  Density threshold  = 1.00e-06
  Integral threshold = 0.00e+00

  ==> Primary Basis <==

  Basis Set: 6-31G*
    Number of shells: 72
    Number of basis function: 135
    Number of Cartesian functions: 135
    Spherical Harmonics?: false
    Max angular momentum: 2

  ==> Pre-Iterations <==

   -------------------------------------------------------
    Irrep   Nso     Nmo     Nalpha   Nbeta   Ndocc  Nsocc
   -------------------------------------------------------
     A        135     135       0       0       0       0
   -------------------------------------------------------
    Total     135     135      29      29      29       0
   -------------------------------------------------------

 OEINTS: Overlap, kinetic, potential, dipole, and quadrupole integrals
         stored in file 35.

  ==> Integral Setup <==

  ==> DFJK: Density-Fitted J/K Matrices <==

    J tasked:                  Yes
    K tasked:                  Yes
    wK tasked:                  No
    OpenMP threads:              1
    Integrals threads:           1
    Memory (MB):              1430
    Algorithm:                Core
    Integral Cache:           NONE
    Schwarz Cutoff:          1E-12
    Fitting Condition:       1E-12

   => Auxiliary Basis Set <=

  Basis Set: 
    Number of shells: 303
    Number of basis function: 942
    Number of Cartesian functions: 942
    Spherical Harmonics?: false
    Max angular momentum: 3

  Minimum eigenvalue in the overlap matrix is 3.5508485739E-03.
  Using Symmetric Orthogonalization.
  SCF Guess: Core (One-Electron) Hamiltonian.

  ==> Iterations <==

                           Total Energy        Delta E     RMS |[F,P]|

   @DF-RHF iter   1:  -167.67135461590249   -1.67671e+02   8.26098e-02 
   @DF-RHF iter   2:  -203.71176682604931   -3.60404e+01   5.05211e-02 DIIS
   @DF-RHF iter   3:  -242.13202168649565   -3.84203e+01   5.43009e-02 DIIS
   @DF-RHF iter   4:  -277.70519682899868   -3.55732e+01   2.66633e-02 DIIS
   @DF-RHF iter   5:  -275.28651474524810    2.41868e+00   2.53270e-02 DIIS
   @DF-RHF iter   6:  -286.69531292009157   -1.14088e+01   1.35989e-02 DIIS
   @DF-RHF iter   7:  -290.25077408384158   -3.55546e+00   2.95363e-03 DIIS
   @DF-RHF iter   8:  -290.33133499344962   -8.05609e-02   9.24545e-04 DIIS
   @DF-RHF iter   9:  -290.33918858190788   -7.85359e-03   4.34900e-04 DIIS
   @DF-RHF iter  10:  -290.34133395294151   -2.14537e-03   1.23369e-04 DIIS
   @DF-RHF iter  11:  -290.34152028107923   -1.86328e-04   4.65209e-05 DIIS
   @DF-RHF iter  12:  -290.34154985984429   -2.95788e-05   1.64895e-05 DIIS
   @DF-RHF iter  13:  -290.34155378475015   -3.92491e-06   5.26199e-06 DIIS
   @DF-RHF iter  14:  -290.34155416715208   -3.82402e-07   1.22893e-06 DIIS
   @DF-RHF iter  15:  -290.34155419466771   -2.75156e-08   2.78281e-07 DIIS

  ==> Post-Iterations <==

    Orbital Energies (a.u.)
    -----------------------

    Doubly Occupied:                                                      

       1A    -15.535276     2A    -11.240785     3A    -11.240616  
       4A    -11.238383     5A    -11.207162     6A    -11.204603  
       7A    -11.197982     8A     -1.224957     9A     -1.033834  
      10A     -1.011599    11A     -0.964719    12A     -0.854761  
      13A     -0.834929    14A     -0.774042    15A     -0.669860  
      16A     -0.633241    17A     -0.627635    18A     -0.598970  
      19A     -0.569857    20A     -0.553115    21A     -0.543904  
      22A     -0.528475    23A     -0.515415    24A     -0.502986  
      25A     -0.486155    26A     -0.471873    27A     -0.467303  
      28A     -0.451850    29A     -0.335912  

    Virtual:                                                              

      30A      0.236280    31A      0.250126    32A      0.265755  
      33A      0.286234    34A      0.288599    35A      0.301033  
      36A      0.310705    37A      0.321765    38A      0.329507  
      39A      0.336606    40A      0.342256    41A      0.348132  
      42A      0.380158    43A      0.388676    44A      0.396734  
      45A      0.400817    46A      0.421007    47A      0.432228  
      48A      0.470056    49A      0.482563    50A      0.500710  
      51A      0.712576    52A      0.731273    53A      0.740156  
      54A      0.741781    55A      0.765215    56A      0.776449  
      57A      0.798384    58A      0.827410    59A      0.875317  
      60A      0.884750    61A      0.909218    62A      0.931834  
      63A      0.952427    64A      0.983706    65A      1.001518  
      66A      1.040874    67A      1.061818    68A      1.126249  
      69A      1.133644    70A      1.143867    71A      1.153108  
      72A      1.154706    73A      1.170295    74A      1.189654  
      75A      1.194532    76A      1.197981    77A      1.204857  
      78A      1.223197    79A      1.238507    80A      1.250846  
      81A      1.259461    82A      1.285132    83A      1.294814  
      84A      1.321199    85A      1.338943    86A      1.355162  
      87A      1.412019    88A      1.524190    89A      1.585155  
      90A      1.614873    91A      1.691173    92A      1.705750  
      93A      1.787666    94A      1.835133    95A      1.891110  
      96A      1.940878    97A      2.002305    98A      2.064976  
      99A      2.112551   100A      2.157345   101A      2.241995  
     102A      2.255370   103A      2.279331   104A      2.296727  
     105A      2.319246   106A      2.327466   107A      2.345278  
     108A      2.400770   109A      2.416396   110A      2.436519  
     111A      2.509918   112A      2.565385   113A      2.619841  
     114A      2.657572   115A      2.669029   116A      2.682737  
     117A      2.685266   118A      2.693700   119A      2.717507  
     120A      2.762033   121A      2.823184   122A      2.840589  
     123A      2.917863   124A      3.011832   125A      3.088286  
     126A      3.115177   127A      3.244769   128A      3.257905  
     129A      4.508631   130A      4.628708   131A      4.671135  
     132A      4.696499   133A      4.867916   134A      4.880491  
     135A      4.977661  

    Final Occupation by Irrep:
              A 
    DOCC [    29 ]

  Energy converged.

  @DF-RHF Final Energy:  -290.34155419466771

   => Energetics <=

    Nuclear Repulsion Energy =            342.7176923991838180
    One-Electron Energy =               -1071.0781867192667960
    Two-Electron Energy =                 438.0189401254153267
    DFT Exchange-Correlation Energy =       0.0000000000000000
    Empirical Dispersion Energy =           0.0000000000000000
    PCM Polarization Energy =               0.0000000000000000
    EFP Energy =                            0.0000000000000000
    Total Energy =                       -290.3415541946677081

    Alert: EFP and PCM quantities not currently incorporated into SCF psivars.

Properties will be evaluated at   0.000000,   0.000000,   0.000000 Bohr
  ==> Properties <==


Properties computed using the SCF density matrix

  Nuclear Dipole Moment: (a.u.)
     X:    -0.4200      Y:    -0.5257      Z:    -1.4894

  Electronic Dipole Moment: (a.u.)
     X:     0.2917      Y:     0.7914      Z:     1.3538

  Dipole Moment: (a.u.)
     X:    -0.1283      Y:     0.2656      Z:    -0.1356     Total:     0.3247

  Dipole Moment: (Debye)
     X:    -0.3261      Y:     0.6752      Z:    -0.3447     Total:     0.8252


  Saving occupied orbitals to File 180.

*** tstop() called on cx1-3-15-2.cx1.hpc.ic.ac.uk at Tue Jul  5 16:32:10 2016
Module time:
	user time   =      14.30 seconds =       0.24 minutes
	system time =       0.07 seconds =       0.00 minutes
	total time  =         15 seconds =       0.25 minutes
Total time:
	user time   =      14.30 seconds =       0.24 minutes
	system time =       0.07 seconds =       0.00 minutes
	total time  =         15 seconds =       0.25 minutes


Properties will be evaluated at   0.000000,   0.000000,   0.000000 Bohr

Properties computed using the  density matrix

  Nuclear Dipole Moment: (a.u.)
     X:    -0.4200      Y:    -0.5257      Z:    -1.4894

  Electronic Dipole Moment: (a.u.)
     X:     0.2917      Y:     0.7914      Z:     1.3538

  Dipole Moment: (a.u.)
     X:    -0.1283      Y:     0.2656      Z:    -0.1356     Total:     0.3247

  Dipole Moment: (Debye)
     X:    -0.3261      Y:     0.6752      Z:    -0.3447     Total:     0.8252

  Quadrupole Moment: (Debye Ang)
    XX:   -47.0406     YY:   -48.1523     ZZ:   -47.3545
    XY:     0.6013     XZ:    -0.5137     YZ:     0.7542

  Traceless Quadrupole Moment: (Debye Ang)
    XX:     0.4752     YY:    -0.6365     ZZ:     0.1613
    XY:     0.6013     XZ:    -0.5137     YZ:     0.7542

  Mulliken Charges: (a.u.)
   Center  Symbol    Alpha    Beta     Spin     Total
       1     H     0.42378  0.42378  0.00000  0.15245
       2     C     3.23532  3.23532  0.00000 -0.47065
       3     C     3.05895  3.05895  0.00000 -0.11790
       4     H     0.41495  0.41495  0.00000  0.17011
       5     H     0.42126  0.42126  0.00000  0.15748
       6     N     3.78660  3.78660  0.00000 -0.57320
       7     H     0.41819  0.41819  0.00000  0.16362
       8     H     0.43282  0.43282  0.00000  0.13437
       9     C     3.04191  3.04191  0.00000 -0.08381
      10     C     3.06976  3.06976  0.00000 -0.13952
      11     C     3.26409  3.26409  0.00000 -0.52819
      12     H     0.43111  0.43111  0.00000  0.13778
      13     H     0.41970  0.41970  0.00000  0.16060
      14     C     3.23287  3.23287  0.00000 -0.46574
      15     H     0.41540  0.41540  0.00000  0.16921
      16     H     0.42992  0.42992  0.00000  0.14016
      17     H     0.41500  0.41500  0.00000  0.17001
      18     H     0.41049  0.41049  0.00000  0.17902
      19     H     0.41622  0.41622  0.00000  0.16756
      20     H     0.41586  0.41586  0.00000  0.16828
      21     H     0.42021  0.42021  0.00000  0.15959
      22     H     0.42561  0.42561  0.00000  0.14877

   Total alpha = 29.00000, Total beta = 29.00000, Total charge = -0.00000


*** PSI4 exiting successfully. Buy a developer a beer!
