    -----------------------------------------------------------------------
          Psi4: An Open-Source Ab Initio Electronic Structure Package
                              Psi4 (no tag) Driver

                          Git: Rev {detached?}  

    J. M. Turney, A. C. Simmonett, R. M. Parrish, E. G. Hohenstein,
    F. A. Evangelista, J. T. Fermann, B. J. Mintz, L. A. Burns, J. J. Wilke,
    M. L. Abrams, N. J. Russ, M. L. Leininger, C. L. Janssen, E. T. Seidl,
    W. D. Allen, H. F. Schaefer, R. A. King, E. F. Valeev, C. D. Sherrill,
    and T. D. Crawford, WIREs Comput. Mol. Sci. 2, 556-565 (2012)
    (doi: 10.1002/wcms.93)

                         Additional Contributions by
    A. E. DePrince, M. Saitow, U. Bozkaya, A. Yu. Sokolov
    -----------------------------------------------------------------------


    Psi4 started on: Tue Jul  5 16:36:27 2016

    Process ID:  27463
    PSI4DATADIR: /export131/home/mjharvey/miniconda3/share
    Memory level set to 256.000 MB

  ==> Input File <==

--------------------------------------------------------------------------
set {
	reference rhf
	basis 6-31G*
}


set_num_threads( 1 )
memory 2 gb

molecule MOL {
0 1

H	 -1.247347	 2.009302	 -0.892364
C	 -1.681721	 1.051800	 -0.620940
O	 -0.774054	 0.001095	 -0.743181
H	 -2.491362	 0.840367	 -1.306584
H	 -2.095060	 1.128758	 0.380270
C	 0.406953	 0.000033	 0.038965
C	 1.527284	 -0.003667	 -0.998752
C	 0.498933	 1.262172	 0.902524
C	 0.494271	 -1.259566	 0.906664
H	 1.452513	 0.873252	 -1.631882
H	 1.448863	 -0.881882	 -1.629595
H	 2.502020	 -0.005104	 -0.521731
H	 0.364280	 2.147110	 0.289513
H	 1.472180	 1.321775	 1.378800
H	 -0.247853	 1.275162	 1.689097
H	 0.356778	 -2.146106	 0.296587
H	 1.467182	 -1.320941	 1.383330
H	 -0.252763	 -1.267328	 1.693119

	symmetry c1
}
set optking {
	frozen_dihedral = ("
		6 3 2 5
	")
}

ee = energy('scf')
oeprop('DIPOLE', 'QUADRUPOLE', 'MULLIKEN_CHARGES')
f=open( 'psi4out.xyz', 'w' )
f.write( "18  " )
f.write( str(ee) + "\n" )
f.write( MOL.save_string_xyz() )
f.close()
--------------------------------------------------------------------------

  Memory set to   2.000 GiB by Python script.

*** tstart() called on cx1-1-4-3.cx1.hpc.ic.ac.uk
*** at Tue Jul  5 16:36:27 2016


         ---------------------------------------------------------
                                   SCF
            by Justin Turney, Rob Parrish, and Andy Simmonett
                              RHF Reference
                        1 Threads,   2000 MiB Core
         ---------------------------------------------------------

  ==> Geometry <==

    Molecular point group: c1
    Full point group: C1

    Geometry (in Angstrom), charge = 0, multiplicity = 1:

       Center              X                  Y                   Z               Mass       
    ------------   -----------------  -----------------  -----------------  -----------------
           H         -1.307723578388     1.820489799901    -0.801453552138     1.007825032070
           C         -1.742097578388     0.862987799901    -0.530029552138    12.000000000000
           O         -0.834430578388    -0.187717200099    -0.652270552138    15.994914619560
           H         -2.551738578388     0.651554799901    -1.215673552138     1.007825032070
           H         -2.155436578388     0.939945799901     0.471180447862     1.007825032070
           C          0.346576421612    -0.188779200099     0.129875447862    12.000000000000
           C          1.466907421612    -0.192479200099    -0.907841552138    12.000000000000
           C          0.438556421612     1.073359799901     0.993434447862    12.000000000000
           C          0.433894421612    -1.448378200099     0.997574447862    12.000000000000
           H          1.392136421612     0.684439799901    -1.540971552138     1.007825032070
           H          1.388486421612    -1.070694200099    -1.538684552138     1.007825032070
           H          2.441643421612    -0.193916200099    -0.430820552138     1.007825032070
           H          0.303903421612     1.958297799901     0.380423447862     1.007825032070
           H          1.411803421612     1.132962799901     1.469710447862     1.007825032070
           H         -0.308229578388     1.086349799901     1.780007447862     1.007825032070
           H          0.296401421612    -2.334918200099     0.387497447862     1.007825032070
           H          1.406805421612    -1.509753200099     1.474240447862     1.007825032070
           H         -0.313139578388    -1.456140200099     1.784029447862     1.007825032070

  Running in c1 symmetry.

  Rotational constants: A =      0.14949  B =      0.09182  C =      0.09075 [cm^-1]
  Rotational constants: A =   4481.53339  B =   2752.81014  C =   2720.65526 [MHz]
  Nuclear repulsion =  272.723333348639301

  Charge       = 0
  Multiplicity = 1
  Electrons    = 50
  Nalpha       = 25
  Nbeta        = 25

  ==> Algorithm <==

  SCF Algorithm Type is DF.
  DIIS enabled.
  MOM disabled.
  Fractional occupation disabled.
  Guess Type is CORE.
  Energy threshold   = 1.00e-06
  Density threshold  = 1.00e-06
  Integral threshold = 0.00e+00

  ==> Primary Basis <==

  Basis Set: 6-31G*
    Number of shells: 60
    Number of basis function: 114
    Number of Cartesian functions: 114
    Spherical Harmonics?: false
    Max angular momentum: 2

  ==> Pre-Iterations <==

   -------------------------------------------------------
    Irrep   Nso     Nmo     Nalpha   Nbeta   Ndocc  Nsocc
   -------------------------------------------------------
     A        114     114       0       0       0       0
   -------------------------------------------------------
    Total     114     114      25      25      25       0
   -------------------------------------------------------

 OEINTS: Overlap, kinetic, potential, dipole, and quadrupole integrals
         stored in file 35.

  ==> Integral Setup <==

  ==> DFJK: Density-Fitted J/K Matrices <==

    J tasked:                  Yes
    K tasked:                  Yes
    wK tasked:                  No
    OpenMP threads:              1
    Integrals threads:           1
    Memory (MB):              1430
    Algorithm:                Core
    Integral Cache:           NONE
    Schwarz Cutoff:          1E-12
    Fitting Condition:       1E-12

   => Auxiliary Basis Set <=

  Basis Set: 
    Number of shells: 252
    Number of basis function: 786
    Number of Cartesian functions: 786
    Spherical Harmonics?: false
    Max angular momentum: 3

  Minimum eigenvalue in the overlap matrix is 3.0023911689E-03.
  Using Symmetric Orthogonalization.
  SCF Guess: Core (One-Electron) Hamiltonian.

  ==> Iterations <==

                           Total Energy        Delta E     RMS |[F,P]|

   @DF-RHF iter   1:  -178.00610618293075   -1.78006e+02   9.84309e-02 
   @DF-RHF iter   2:  -221.36342797581477   -4.33573e+01   4.60546e-02 DIIS
   @DF-RHF iter   3:  -240.70517814979047   -1.93418e+01   5.89624e-02 DIIS
   @DF-RHF iter   4:  -260.76107203265423   -2.00559e+01   3.78111e-02 DIIS
   @DF-RHF iter   5:  -266.47134445230648   -5.71027e+00   2.60683e-02 DIIS
   @DF-RHF iter   6:  -270.11623542136437   -3.64489e+00   1.27286e-02 DIIS
   @DF-RHF iter   7:  -271.01114977452306   -8.94914e-01   4.73810e-03 DIIS
   @DF-RHF iter   8:  -271.14616586490519   -1.35016e-01   1.73777e-03 DIIS
   @DF-RHF iter   9:  -271.16596605515889   -1.98002e-02   3.41211e-04 DIIS
   @DF-RHF iter  10:  -271.16684938683494   -8.83332e-04   9.48375e-05 DIIS
   @DF-RHF iter  11:  -271.16695254979135   -1.03163e-04   4.03479e-05 DIIS
   @DF-RHF iter  12:  -271.16696633612690   -1.37863e-05   8.84227e-06 DIIS
   @DF-RHF iter  13:  -271.16696750154796   -1.16542e-06   1.99617e-06 DIIS
   @DF-RHF iter  14:  -271.16696755397987   -5.24319e-08   5.92145e-07 DIIS

  ==> Post-Iterations <==

    Orbital Energies (a.u.)
    -----------------------

    Doubly Occupied:                                                      

       1A    -20.544505     2A    -11.281141     3A    -11.261785  
       4A    -11.212469     5A    -11.206397     6A    -11.201230  
       7A     -1.369903     8A     -1.072316     9A     -0.954157  
      10A     -0.934375    11A     -0.911773    12A     -0.750716  
      13A     -0.660657    14A     -0.648845    15A     -0.637549  
      16A     -0.580865    17A     -0.575576    18A     -0.545972  
      19A     -0.541858    20A     -0.526198    21A     -0.515379  
      22A     -0.492847    23A     -0.486424    24A     -0.440659  
      25A     -0.394925  

    Virtual:                                                              

      26A      0.216695    27A      0.259193    28A      0.278751  
      29A      0.284339    30A      0.305266    31A      0.316241  
      32A      0.317042    33A      0.340112    34A      0.352056  
      35A      0.359448    36A      0.367826    37A      0.375557  
      38A      0.389226    39A      0.410559    40A      0.429980  
      41A      0.448188    42A      0.483540    43A      0.697925  
      44A      0.712862    45A      0.739674    46A      0.757405  
      47A      0.778170    48A      0.817521    49A      0.828670  
      50A      0.875879    51A      0.905705    52A      0.920295  
      53A      0.930696    54A      0.995123    55A      1.009282  
      56A      1.091772    57A      1.104919    58A      1.114923  
      59A      1.147348    60A      1.154976    61A      1.173042  
      62A      1.189701    63A      1.193092    64A      1.202373  
      65A      1.220256    66A      1.227042    67A      1.234345  
      68A      1.255059    69A      1.272996    70A      1.295751  
      71A      1.333496    72A      1.433660    73A      1.486700  
      74A      1.619871    75A      1.634521    76A      1.658949  
      77A      1.684298    78A      1.733080    79A      1.900402  
      80A      1.933125    81A      1.976642    82A      2.023557  
      83A      2.079604    84A      2.125236    85A      2.182008  
      86A      2.219836    87A      2.253420    88A      2.318752  
      89A      2.402526    90A      2.407788    91A      2.450781  
      92A      2.472607    93A      2.496078    94A      2.567713  
      95A      2.576143    96A      2.599720    97A      2.610531  
      98A      2.626117    99A      2.633931   100A      2.739535  
     101A      2.759965   102A      2.762978   103A      2.979943  
     104A      3.001303   105A      3.021997   106A      3.099868  
     107A      3.282612   108A      3.334616   109A      4.458718  
     110A      4.641046   111A      4.689974   112A      4.754912  
     113A      4.803479   114A      5.087137  

    Final Occupation by Irrep:
              A 
    DOCC [    25 ]

  Energy converged.

  @DF-RHF Final Energy:  -271.16696755397987

   => Energetics <=

    Nuclear Repulsion Energy =            272.7233333486393008
    One-Electron Energy =                -908.2835570468223523
    Two-Electron Energy =                 364.3932561442021552
    DFT Exchange-Correlation Energy =       0.0000000000000000
    Empirical Dispersion Energy =           0.0000000000000000
    PCM Polarization Energy =               0.0000000000000000
    EFP Energy =                            0.0000000000000000
    Total Energy =                       -271.1669675539809532

    Alert: EFP and PCM quantities not currently incorporated into SCF psivars.

Properties will be evaluated at   0.000000,   0.000000,   0.000000 Bohr
  ==> Properties <==


Properties computed using the SCF density matrix

  Nuclear Dipole Moment: (a.u.)
     X:     1.8755      Y:     1.6009      Z:     2.0776

  Electronic Dipole Moment: (a.u.)
     X:    -1.8011      Y:    -1.1827      Z:    -1.7156

  Dipole Moment: (a.u.)
     X:     0.0744      Y:     0.4182      Z:     0.3620     Total:     0.5581

  Dipole Moment: (Debye)
     X:     0.1891      Y:     1.0629      Z:     0.9201     Total:     1.4185


  Saving occupied orbitals to File 180.

*** tstop() called on cx1-1-4-3.cx1.hpc.ic.ac.uk at Tue Jul  5 16:36:37 2016
Module time:
	user time   =       8.77 seconds =       0.15 minutes
	system time =       0.05 seconds =       0.00 minutes
	total time  =         10 seconds =       0.17 minutes
Total time:
	user time   =       8.77 seconds =       0.15 minutes
	system time =       0.05 seconds =       0.00 minutes
	total time  =         10 seconds =       0.17 minutes


Properties will be evaluated at   0.000000,   0.000000,   0.000000 Bohr

Properties computed using the  density matrix

  Nuclear Dipole Moment: (a.u.)
     X:     1.8755      Y:     1.6009      Z:     2.0776

  Electronic Dipole Moment: (a.u.)
     X:    -1.8011      Y:    -1.1827      Z:    -1.7156

  Dipole Moment: (a.u.)
     X:     0.0744      Y:     0.4182      Z:     0.3620     Total:     0.5581

  Dipole Moment: (Debye)
     X:     0.1891      Y:     1.0629      Z:     0.9201     Total:     1.4185

  Quadrupole Moment: (Debye Ang)
    XX:   -38.6221     YY:   -39.4892     ZZ:   -40.6899
    XY:    -1.9536     XZ:    -0.0602     YZ:    -0.8797

  Traceless Quadrupole Moment: (Debye Ang)
    XX:     0.9783     YY:     0.1112     ZZ:    -1.0895
    XY:    -1.9536     XZ:    -0.0602     YZ:    -0.8797

  Mulliken Charges: (a.u.)
   Center  Symbol    Alpha    Beta     Spin     Total
       1     H     0.43001  0.43001  0.00000  0.13997
       2     C     3.07795  3.07795  0.00000 -0.15590
       3     O     4.32475  4.32475  0.00000 -0.64950
       4     H     0.41135  0.41135  0.00000  0.17731
       5     H     0.42906  0.42906  0.00000  0.14188
       6     C     2.83658  2.83658  0.00000  0.32685
       7     C     3.22861  3.22861  0.00000 -0.45723
       8     C     3.26140  3.26140  0.00000 -0.52280
       9     C     3.23707  3.23707  0.00000 -0.47413
      10     H     0.42033  0.42033  0.00000  0.15934
      11     H     0.41402  0.41402  0.00000  0.17197
      12     H     0.42823  0.42823  0.00000  0.14355
      13     H     0.41565  0.41565  0.00000  0.16871
      14     H     0.41376  0.41376  0.00000  0.17249
      15     H     0.41561  0.41561  0.00000  0.16879
      16     H     0.41278  0.41278  0.00000  0.17444
      17     H     0.42308  0.42308  0.00000  0.15384
      18     H     0.41979  0.41979  0.00000  0.16043

   Total alpha = 25.00000, Total beta = 25.00000, Total charge = -0.00000


*** PSI4 exiting successfully. Buy a developer a beer!
