    -----------------------------------------------------------------------
          Psi4: An Open-Source Ab Initio Electronic Structure Package
                              Psi4 (no tag) Driver

                          Git: Rev {detached?}  

    J. M. Turney, A. C. Simmonett, R. M. Parrish, E. G. Hohenstein,
    F. A. Evangelista, J. T. Fermann, B. J. Mintz, L. A. Burns, J. J. Wilke,
    M. L. Abrams, N. J. Russ, M. L. Leininger, C. L. Janssen, E. T. Seidl,
    W. D. Allen, H. F. Schaefer, R. A. King, E. F. Valeev, C. D. Sherrill,
    and T. D. Crawford, WIREs Comput. Mol. Sci. 2, 556-565 (2012)
    (doi: 10.1002/wcms.93)

                         Additional Contributions by
    A. E. DePrince, M. Saitow, U. Bozkaya, A. Yu. Sokolov
    -----------------------------------------------------------------------


    Psi4 started on: Tue Jul  5 16:33:29 2016

    Process ID:  27114
    PSI4DATADIR: /export131/home/mjharvey/miniconda3/share
    Memory level set to 256.000 MB

  ==> Input File <==

--------------------------------------------------------------------------
set {
	reference rhf
	basis 6-31G*
}


set_num_threads( 1 )
memory 2 gb

molecule MOL {
0 1

H	 -3.420663	 1.227371	 -1.044276
O	 -3.452007	 0.283848	 -0.965577
C	 -3.181085	 -0.079926	 0.364119
C	 -1.765924	 0.277073	 0.805136
H	 -3.327791	 -1.152017	 0.410903
H	 -3.905698	 0.375695	 1.036898
C	 -0.677594	 -0.417312	 -0.014550
H	 -1.637766	 1.358238	 0.744969
H	 -1.659588	 0.017670	 1.857098
C	 0.738335	 -0.034840	 0.421385
H	 -0.814977	 -0.178223	 -1.064632
H	 -0.802730	 -1.495410	 0.071702
C	 1.822265	 -0.738362	 -0.399735
H	 0.853533	 1.043532	 0.342250
H	 0.871597	 -0.279636	 1.474438
C	 3.258060	 -0.455774	 0.057203
H	 1.718003	 -0.459167	 -1.447053
H	 1.651028	 -1.811884	 -0.354513
C	 3.366197	 0.313147	 1.375335
H	 3.760840	 0.114173	 -0.720398
H	 3.800034	 -1.395612	 0.141886
H	 2.822488	 1.252789	 1.324411
H	 4.402373	 0.544119	 1.602993
H	 2.969036	 -0.254065	 2.210617

	symmetry c1
}
set optking {
	frozen_dihedral = ("
		17 13 10 7,
		13 10 7 11,
		11 7 4 3,
		1 2 3 5,
		7 4 3 2
	")
}

ee = energy('scf')
oeprop('DIPOLE', 'QUADRUPOLE', 'MULLIKEN_CHARGES')
f=open( 'psi4out.xyz', 'w' )
f.write( "24  " )
f.write( str(ee) + "\n" )
f.write( MOL.save_string_xyz() )
f.close()
--------------------------------------------------------------------------

  Memory set to   2.000 GiB by Python script.

*** tstart() called on cx1-1-3-2.cx1.hpc.ic.ac.uk
*** at Tue Jul  5 16:33:29 2016


         ---------------------------------------------------------
                                   SCF
            by Justin Turney, Rob Parrish, and Andy Simmonett
                              RHF Reference
                        1 Threads,   2000 MiB Core
         ---------------------------------------------------------

  ==> Geometry <==

    Molecular point group: c1
    Full point group: C1

    Geometry (in Angstrom), charge = 0, multiplicity = 1:

       Center              X                  Y                   Z               Mass       
    ------------   -----------------  -----------------  -----------------  -----------------
           H         -3.376270810149     1.315148890504    -1.238051497722     1.007825032070
           O         -3.407614810149     0.371625890504    -1.159352497722    15.994914619560
           C         -3.136692810149     0.007851890504     0.170343502278    12.000000000000
           C         -1.721531810149     0.364850890504     0.611360502278    12.000000000000
           H         -3.283398810149    -1.064239109496     0.217127502278     1.007825032070
           H         -3.861305810149     0.463472890504     0.843122502278     1.007825032070
           C         -0.633201810149    -0.329534109496    -0.208325497722    12.000000000000
           H         -1.593373810149     1.446015890504     0.551193502278     1.007825032070
           H         -1.615195810149     0.105447890504     1.663322502278     1.007825032070
           C          0.782727189851     0.052937890504     0.227609502278    12.000000000000
           H         -0.770584810149    -0.090445109496    -1.258407497722     1.007825032070
           H         -0.758337810149    -1.407632109496    -0.122073497722     1.007825032070
           C          1.866657189851    -0.650584109496    -0.593510497722    12.000000000000
           H          0.897925189851     1.131309890504     0.148474502278     1.007825032070
           H          0.915989189851    -0.191858109496     1.280662502278     1.007825032070
           C          3.302452189851    -0.367996109496    -0.136572497722    12.000000000000
           H          1.762395189851    -0.371389109496    -1.640828497722     1.007825032070
           H          1.695420189851    -1.724106109496    -0.548288497722     1.007825032070
           C          3.410589189851     0.400924890504     1.181559502278    12.000000000000
           H          3.805232189851     0.201950890504    -0.914173497722     1.007825032070
           H          3.844426189851    -1.307834109496    -0.051889497722     1.007825032070
           H          2.866880189851     1.340566890504     1.130635502278     1.007825032070
           H          4.446765189851     0.631896890504     1.409217502278     1.007825032070
           H          3.013428189851    -0.166287109496     2.016841502278     1.007825032070

  Running in c1 symmetry.

  Rotational constants: A =      0.19613  B =      0.02069  C =      0.01961 [cm^-1]
  Rotational constants: A =   5879.75990  B =    620.18301  C =    587.99422 [MHz]
  Nuclear repulsion =  387.248713290280932

  Charge       = 0
  Multiplicity = 1
  Electrons    = 66
  Nalpha       = 33
  Nbeta        = 33

  ==> Algorithm <==

  SCF Algorithm Type is DF.
  DIIS enabled.
  MOM disabled.
  Fractional occupation disabled.
  Guess Type is CORE.
  Energy threshold   = 1.00e-06
  Density threshold  = 1.00e-06
  Integral threshold = 0.00e+00

  ==> Primary Basis <==

  Basis Set: 6-31G*
    Number of shells: 80
    Number of basis function: 152
    Number of Cartesian functions: 152
    Spherical Harmonics?: false
    Max angular momentum: 2

  ==> Pre-Iterations <==

   -------------------------------------------------------
    Irrep   Nso     Nmo     Nalpha   Nbeta   Ndocc  Nsocc
   -------------------------------------------------------
     A        152     152       0       0       0       0
   -------------------------------------------------------
    Total     152     152      33      33      33       0
   -------------------------------------------------------

 OEINTS: Overlap, kinetic, potential, dipole, and quadrupole integrals
         stored in file 35.

  ==> Integral Setup <==

  ==> DFJK: Density-Fitted J/K Matrices <==

    J tasked:                  Yes
    K tasked:                  Yes
    wK tasked:                  No
    OpenMP threads:              1
    Integrals threads:           1
    Memory (MB):              1430
    Algorithm:                Core
    Integral Cache:           NONE
    Schwarz Cutoff:          1E-12
    Fitting Condition:       1E-12

   => Auxiliary Basis Set <=

  Basis Set: 
    Number of shells: 336
    Number of basis function: 1048
    Number of Cartesian functions: 1048
    Spherical Harmonics?: false
    Max angular momentum: 3

  Minimum eigenvalue in the overlap matrix is 2.8640378743E-03.
  Using Symmetric Orthogonalization.
  SCF Guess: Core (One-Electron) Hamiltonian.

  ==> Iterations <==

                           Total Energy        Delta E     RMS |[F,P]|

   @DF-RHF iter   1:  -268.42303266429275   -2.68423e+02   6.06067e-02 
   @DF-RHF iter   2:   -75.32779537962637    1.93095e+02   7.16965e-02 DIIS
   @DF-RHF iter   3:  -217.10753224979368   -1.41780e+02   5.92470e-02 DIIS
   @DF-RHF iter   4:  -248.50407943067711   -3.13965e+01   5.71733e-02 DIIS
   @DF-RHF iter   5:  -297.76145649237793   -4.92574e+01   3.86005e-02 DIIS
   @DF-RHF iter   6:  -348.63684824172441   -5.08754e+01   7.23528e-03 DIIS
   @DF-RHF iter   7:  -349.09442117820828   -4.57573e-01   3.96924e-03 DIIS
   @DF-RHF iter   8:  -349.22903468160024   -1.34614e-01   6.84336e-04 DIIS
   @DF-RHF iter   9:  -349.23656733753427   -7.53266e-03   2.33407e-04 DIIS
   @DF-RHF iter  10:  -349.23754557307819   -9.78236e-04   7.49041e-05 DIIS
   @DF-RHF iter  11:  -349.23765230093483   -1.06728e-04   2.66351e-05 DIIS
   @DF-RHF iter  12:  -349.23766951584213   -1.72149e-05   7.76998e-06 DIIS
   @DF-RHF iter  13:  -349.23767051125509   -9.95413e-07   2.37017e-06 DIIS
   @DF-RHF iter  14:  -349.23767064147393   -1.30219e-07   4.36431e-07 DIIS

  ==> Post-Iterations <==

    Orbital Energies (a.u.)
    -----------------------

    Doubly Occupied:                                                      

       1A    -20.553336     2A    -11.267458     3A    -11.217089  
       4A    -11.212549     5A    -11.211632     6A    -11.210250  
       7A    -11.210082     8A    -11.206591     9A     -1.359922  
      10A     -1.089470    11A     -1.048043    12A     -0.982373  
      13A     -0.915381    14A     -0.856423    15A     -0.802459  
      16A     -0.765375    17A     -0.678887    18A     -0.657614  
      19A     -0.630018    20A     -0.619511    21A     -0.591159  
      22A     -0.585618    23A     -0.555523    24A     -0.543004  
      25A     -0.516556    26A     -0.511038    27A     -0.498318  
      28A     -0.472472    29A     -0.468666    30A     -0.459937  
      31A     -0.451092    32A     -0.442299    33A     -0.418914  

    Virtual:                                                              

      34A      0.219556    35A      0.228084    36A      0.257459  
      37A      0.263391    38A      0.272174    39A      0.283849  
      40A      0.298455    41A      0.306121    42A      0.320881  
      43A      0.323222    44A      0.328074    45A      0.348735  
      46A      0.352623    47A      0.367065    48A      0.376178  
      49A      0.387460    50A      0.407152    51A      0.416273  
      52A      0.425646    53A      0.442040    54A      0.462367  
      55A      0.502336    56A      0.522705    57A      0.702225  
      58A      0.719298    59A      0.725028    60A      0.737927  
      61A      0.769121    62A      0.782497    63A      0.817024  
      64A      0.822526    65A      0.847095    66A      0.870701  
      67A      0.889632    68A      0.918405    69A      0.941868  
      70A      0.956134    71A      0.992293    72A      1.001743  
      73A      1.060719    74A      1.079343    75A      1.082757  
      76A      1.126953    77A      1.137385    78A      1.148983  
      79A      1.153255    80A      1.165096    81A      1.165623  
      82A      1.175334    83A      1.187421    84A      1.192898  
      85A      1.194881    86A      1.208211    87A      1.221170  
      88A      1.227909    89A      1.232308    90A      1.239713  
      91A      1.250879    92A      1.272218    93A      1.311927  
      94A      1.315289    95A      1.343422    96A      1.428470  
      97A      1.441874    98A      1.539750    99A      1.617293  
     100A      1.633614   101A      1.658298   102A      1.706155  
     103A      1.731958   104A      1.787485   105A      1.838318  
     106A      1.904398   107A      1.945793   108A      1.948487  
     109A      2.024870   110A      2.055941   111A      2.108703  
     112A      2.123593   113A      2.159953   114A      2.213371  
     115A      2.236020   116A      2.250246   117A      2.269510  
     118A      2.290448   119A      2.330805   120A      2.352196  
     121A      2.362084   122A      2.370252   123A      2.445849  
     124A      2.465900   125A      2.493383   126A      2.531608  
     127A      2.561557   128A      2.615267   129A      2.637336  
     130A      2.679766   131A      2.686106   132A      2.729132  
     133A      2.743304   134A      2.780705   135A      2.813039  
     136A      2.848951   137A      2.876860   138A      2.932956  
     139A      2.987242   140A      3.026596   141A      3.045282  
     142A      3.154622   143A      3.191341   144A      3.232679  
     145A      4.181355   146A      4.553289   147A      4.629205  
     148A      4.733320   149A      4.764804   150A      4.833366  
     151A      4.941129   152A      5.056651  

    Final Occupation by Irrep:
              A 
    DOCC [    33 ]

  Energy converged.

  @DF-RHF Final Energy:  -349.23767064147393

   => Energetics <=

    Nuclear Repulsion Energy =            387.2487132902809321
    One-Electron Energy =               -1240.9546979194069536
    Two-Electron Energy =                 504.4683139876523228
    DFT Exchange-Correlation Energy =       0.0000000000000000
    Empirical Dispersion Energy =           0.0000000000000000
    PCM Polarization Energy =               0.0000000000000000
    EFP Energy =                            0.0000000000000000
    Total Energy =                       -349.2376706414737555

    Alert: EFP and PCM quantities not currently incorporated into SCF psivars.

Properties will be evaluated at   0.000000,   0.000000,   0.000000 Bohr
  ==> Properties <==


Properties computed using the SCF density matrix

  Nuclear Dipole Moment: (a.u.)
     X:     7.4740      Y:     0.2943      Z:     3.2633

  Electronic Dipole Moment: (a.u.)
     X:    -7.2895      Y:     0.1425      Z:    -2.7887

  Dipole Moment: (a.u.)
     X:     0.1845      Y:     0.4368      Z:     0.4746     Total:     0.6709

  Dipole Moment: (Debye)
     X:     0.4688      Y:     1.1102      Z:     1.2063     Total:     1.7052


  Saving occupied orbitals to File 180.

*** tstop() called on cx1-1-3-2.cx1.hpc.ic.ac.uk at Tue Jul  5 16:33:48 2016
Module time:
	user time   =      18.58 seconds =       0.31 minutes
	system time =       0.20 seconds =       0.00 minutes
	total time  =         19 seconds =       0.32 minutes
Total time:
	user time   =      18.58 seconds =       0.31 minutes
	system time =       0.20 seconds =       0.00 minutes
	total time  =         19 seconds =       0.32 minutes


Properties will be evaluated at   0.000000,   0.000000,   0.000000 Bohr

Properties computed using the  density matrix

  Nuclear Dipole Moment: (a.u.)
     X:     7.4740      Y:     0.2943      Z:     3.2633

  Electronic Dipole Moment: (a.u.)
     X:    -7.2895      Y:     0.1425      Z:    -2.7887

  Dipole Moment: (a.u.)
     X:     0.1845      Y:     0.4368      Z:     0.4746     Total:     0.6709

  Dipole Moment: (Debye)
     X:     0.4688      Y:     1.1102      Z:     1.2063     Total:     1.7052

  Quadrupole Moment: (Debye Ang)
    XX:   -57.6003     YY:   -50.0710     ZZ:   -55.5789
    XY:    -4.1801     XZ:    -5.0131     YZ:    -2.5043

  Traceless Quadrupole Moment: (Debye Ang)
    XX:    -3.1836     YY:     4.3457     ZZ:    -1.1622
    XY:    -4.1801     XZ:    -5.0131     YZ:    -2.5043

  Mulliken Charges: (a.u.)
   Center  Symbol    Alpha    Beta     Spin     Total
       1     H     0.28343  0.28343  0.00000  0.43315
       2     O     4.36831  4.36831  0.00000 -0.73662
       3     C     2.99611  2.99611  0.00000  0.00778
       4     C     3.16891  3.16891  0.00000 -0.33782
       5     H     0.41637  0.41637  0.00000  0.16727
       6     H     0.42826  0.42826  0.00000  0.14348
       7     C     3.15044  3.15044  0.00000 -0.30087
       8     H     0.42856  0.42856  0.00000  0.14287
       9     H     0.42254  0.42254  0.00000  0.15491
      10     C     3.15712  3.15712  0.00000 -0.31425
      11     H     0.41253  0.41253  0.00000  0.17494
      12     H     0.42387  0.42387  0.00000  0.15226
      13     C     3.15490  3.15490  0.00000 -0.30980
      14     H     0.42395  0.42395  0.00000  0.15209
      15     H     0.42213  0.42213  0.00000  0.15575
      16     C     3.15435  3.15435  0.00000 -0.30870
      17     H     0.42033  0.42033  0.00000  0.15934
      18     H     0.42183  0.42183  0.00000  0.15635
      19     C     3.24440  3.24440  0.00000 -0.48879
      20     H     0.42136  0.42136  0.00000  0.15728
      21     H     0.42026  0.42026  0.00000  0.15949
      22     H     0.42008  0.42008  0.00000  0.15984
      23     H     0.41892  0.41892  0.00000  0.16216
      24     H     0.42105  0.42105  0.00000  0.15790

   Total alpha = 33.00000, Total beta = 33.00000, Total charge = -0.00000


*** PSI4 exiting successfully. Buy a developer a beer!
