    -----------------------------------------------------------------------
          Psi4: An Open-Source Ab Initio Electronic Structure Package
                              Psi4 (no tag) Driver

                          Git: Rev {detached?}  

    J. M. Turney, A. C. Simmonett, R. M. Parrish, E. G. Hohenstein,
    F. A. Evangelista, J. T. Fermann, B. J. Mintz, L. A. Burns, J. J. Wilke,
    M. L. Abrams, N. J. Russ, M. L. Leininger, C. L. Janssen, E. T. Seidl,
    W. D. Allen, H. F. Schaefer, R. A. King, E. F. Valeev, C. D. Sherrill,
    and T. D. Crawford, WIREs Comput. Mol. Sci. 2, 556-565 (2012)
    (doi: 10.1002/wcms.93)

                         Additional Contributions by
    A. E. DePrince, M. Saitow, U. Bozkaya, A. Yu. Sokolov
    -----------------------------------------------------------------------


    Psi4 started on: Tue Jul  5 16:29:40 2016

    Process ID:  27434
    PSI4DATADIR: /export131/home/mjharvey/miniconda3/share
    Memory level set to 256.000 MB

  ==> Input File <==

--------------------------------------------------------------------------
set {
	reference rhf
	basis 6-31G*
}


set_num_threads( 1 )
memory 2 gb

molecule MOL {
0 1

H	 -3.042581	 -0.665861	 0.004336
O	 -2.245037	 -1.176175	 0.000806
C	 -1.162163	 -0.365336	 0.001020
C	 0.037809	 -0.728012	 -0.583671
C	 -1.294839	 0.869812	 0.623625
H	 0.142956	 -1.686122	 -1.064236
C	 1.104486	 0.158628	 -0.539176
H	 -2.240657	 1.118021	 1.069651
C	 -0.230951	 1.753798	 0.666319
H	 2.039815	 -0.121129	 -0.990770
C	 0.979370	 1.386981	 0.077644
C	 -0.381173	 3.106808	 1.321985
H	 1.816233	 2.062394	 0.106057
H	 0.485725	 3.345765	 1.928763
H	 -1.257476	 3.143104	 1.958096
H	 -0.481773	 3.888151	 0.573835

	symmetry c1
}
ee = energy('scf')
oeprop('DIPOLE', 'QUADRUPOLE', 'MULLIKEN_CHARGES')
f=open( 'psi4out.xyz', 'w' )
f.write( "16  " )
f.write( str(ee) + "\n" )
f.write( MOL.save_string_xyz() )
f.close()
--------------------------------------------------------------------------

  Memory set to   2.000 GiB by Python script.

*** tstart() called on cx1-3-1-3.cx1.hpc.ic.ac.uk
*** at Tue Jul  5 16:29:40 2016


         ---------------------------------------------------------
                                   SCF
            by Justin Turney, Rob Parrish, and Andy Simmonett
                              RHF Reference
                        1 Threads,   2000 MiB Core
         ---------------------------------------------------------

  ==> Geometry <==

    Molecular point group: c1
    Full point group: C1

    Geometry (in Angstrom), charge = 0, multiplicity = 1:

       Center              X                  Y                   Z               Mass       
    ------------   -----------------  -----------------  -----------------  -----------------
           H         -2.581379174031    -1.281740307946    -0.203327801956     1.007825032070
           O         -1.783835174031    -1.792054307946    -0.206857801956    15.994914619560
           C         -0.700961174031    -0.981215307946    -0.206643801956    12.000000000000
           C          0.499010825969    -1.343891307946    -0.791334801956    12.000000000000
           C         -0.833637174031     0.253932692054     0.415961198044    12.000000000000
           H          0.604157825969    -2.302001307946    -1.271899801956     1.007825032070
           C          1.565687825969    -0.457251307946    -0.746839801956    12.000000000000
           H         -1.779455174031     0.502141692054     0.861987198044     1.007825032070
           C          0.230250825969     1.137918692054     0.458655198044    12.000000000000
           H          2.501016825969    -0.737008307946    -1.198433801956     1.007825032070
           C          1.440571825969     0.771101692054    -0.130019801956    12.000000000000
           C          0.080028825969     2.490928692054     1.114321198044    12.000000000000
           H          2.277434825969     1.446514692054    -0.101606801956     1.007825032070
           H          0.946926825969     2.729885692054     1.721099198044     1.007825032070
           H         -0.796274174031     2.527224692054     1.750432198044     1.007825032070
           H         -0.020571174031     3.272271692054     0.366171198044     1.007825032070

  Running in c1 symmetry.

  Rotational constants: A =      0.12105  B =      0.06156  C =      0.04115 [cm^-1]
  Rotational constants: A =   3628.97934  B =   1845.65937  C =   1233.78304 [MHz]
  Nuclear repulsion =  345.753270894809589

  Charge       = 0
  Multiplicity = 1
  Electrons    = 58
  Nalpha       = 29
  Nbeta        = 29

  ==> Algorithm <==

  SCF Algorithm Type is DF.
  DIIS enabled.
  MOM disabled.
  Fractional occupation disabled.
  Guess Type is CORE.
  Energy threshold   = 1.00e-06
  Density threshold  = 1.00e-06
  Integral threshold = 0.00e+00

  ==> Primary Basis <==

  Basis Set: 6-31G*
    Number of shells: 64
    Number of basis function: 136
    Number of Cartesian functions: 136
    Spherical Harmonics?: false
    Max angular momentum: 2

  ==> Pre-Iterations <==

   -------------------------------------------------------
    Irrep   Nso     Nmo     Nalpha   Nbeta   Ndocc  Nsocc
   -------------------------------------------------------
     A        136     136       0       0       0       0
   -------------------------------------------------------
    Total     136     136      29      29      29       0
   -------------------------------------------------------

 OEINTS: Overlap, kinetic, potential, dipole, and quadrupole integrals
         stored in file 35.

  ==> Integral Setup <==

  ==> DFJK: Density-Fitted J/K Matrices <==

    J tasked:                  Yes
    K tasked:                  Yes
    wK tasked:                  No
    OpenMP threads:              1
    Integrals threads:           1
    Memory (MB):              1430
    Algorithm:                Core
    Integral Cache:           NONE
    Schwarz Cutoff:          1E-12
    Fitting Condition:       1E-12

   => Auxiliary Basis Set <=

  Basis Set: 
    Number of shells: 264
    Number of basis function: 848
    Number of Cartesian functions: 848
    Spherical Harmonics?: false
    Max angular momentum: 3

  Minimum eigenvalue in the overlap matrix is 4.1525983164E-04.
  Using Symmetric Orthogonalization.
  SCF Guess: Core (One-Electron) Hamiltonian.

  ==> Iterations <==

                           Total Energy        Delta E     RMS |[F,P]|

   @DF-RHF iter   1:  -269.29286586818114   -2.69293e+02   6.61032e-02 
   @DF-RHF iter   2:  -220.39274160690263    4.89001e+01   5.56721e-02 DIIS
   @DF-RHF iter   3:  -272.08616342223570   -5.16934e+01   6.17616e-02 DIIS
   @DF-RHF iter   4:  -328.29978177608166   -5.62136e+01   2.91469e-02 DIIS
   @DF-RHF iter   5:  -335.31819518585212   -7.01841e+00   2.54848e-02 DIIS
   @DF-RHF iter   6:  -344.11844022565595   -8.80025e+00   6.53723e-03 DIIS
   @DF-RHF iter   7:  -344.53328874206375   -4.14849e-01   2.38524e-03 DIIS
   @DF-RHF iter   8:  -344.58663397839416   -5.33452e-02   5.66650e-04 DIIS
   @DF-RHF iter   9:  -344.59145523621453   -4.82126e-03   1.61560e-04 DIIS
   @DF-RHF iter  10:  -344.59184449673944   -3.89261e-04   8.27496e-05 DIIS
   @DF-RHF iter  11:  -344.59199459165563   -1.50095e-04   2.82436e-05 DIIS
   @DF-RHF iter  12:  -344.59202398938692   -2.93977e-05   1.18994e-05 DIIS
   @DF-RHF iter  13:  -344.59203233823587   -8.34885e-06   5.69975e-06 DIIS
   @DF-RHF iter  14:  -344.59203353678970   -1.19855e-06   1.87151e-06 DIIS
   @DF-RHF iter  15:  -344.59203365880751   -1.22018e-07   4.23220e-07 DIIS

  ==> Post-Iterations <==

    Orbital Energies (a.u.)
    -----------------------

    Doubly Occupied:                                                      

       1A    -20.584318     2A    -11.294450     3A    -11.243363  
       4A    -11.233861     5A    -11.222996     6A    -11.220639  
       7A    -11.219916     8A    -11.217501     9A     -1.405111  
      10A     -1.150038    11A     -1.044265    12A     -1.003458  
      13A     -0.938042    14A     -0.837741    15A     -0.801397  
      16A     -0.726847    17A     -0.681418    18A     -0.650541  
      19A     -0.606558    20A     -0.593364    21A     -0.576459  
      22A     -0.567153    23A     -0.560151    24A     -0.532927  
      25A     -0.502997    26A     -0.480073    27A     -0.466347  
      28A     -0.330550    29A     -0.307682  

    Virtual:                                                              

      30A      0.146383    31A      0.160127    32A      0.227467  
      33A      0.242936    34A      0.267327    35A      0.291892  
      36A      0.315031    37A      0.327020    38A      0.341115  
      39A      0.346117    40A      0.395534    41A      0.413731  
      42A      0.466740    43A      0.477287    44A      0.510696  
      45A      0.536911    46A      0.595481    47A      0.631835  
      48A      0.723082    49A      0.737018    50A      0.751377  
      51A      0.771067    52A      0.774467    53A      0.814207  
      54A      0.835515    55A      0.839588    56A      0.844775  
      57A      0.875862    58A      0.885277    59A      0.891601  
      60A      0.913670    61A      0.949153    62A      0.971273  
      63A      1.010207    64A      1.024879    65A      1.040366  
      66A      1.112167    67A      1.116527    68A      1.127033  
      69A      1.156884    70A      1.169469    71A      1.178560  
      72A      1.190574    73A      1.200281    74A      1.228205  
      75A      1.244060    76A      1.250567    77A      1.290557  
      78A      1.329172    79A      1.375037    80A      1.409488  
      81A      1.441098    82A      1.456581    83A      1.494291  
      84A      1.524177    85A      1.613681    86A      1.629274  
      87A      1.649765    88A      1.696586    89A      1.734521  
      90A      1.750929    91A      1.775607    92A      1.779892  
      93A      1.949618    94A      2.069841    95A      2.092981  
      96A      2.119144    97A      2.144565    98A      2.185734  
      99A      2.197848   100A      2.212179   101A      2.239422  
     102A      2.271487   103A      2.294100   104A      2.324303  
     105A      2.411407   106A      2.450492   107A      2.490712  
     108A      2.509391   109A      2.519315   110A      2.557786  
     111A      2.611517   112A      2.648264   113A      2.695597  
     114A      2.707263   115A      2.725134   116A      2.804268  
     117A      2.871021   118A      2.913658   119A      2.957731  
     120A      3.045008   121A      3.049701   122A      3.124345  
     123A      3.138658   124A      3.203458   125A      3.278231  
     126A      3.330737   127A      3.528696   128A      3.840432  
     129A      4.354566   130A      4.536082   131A      4.551278  
     132A      4.623556   133A      4.673186   134A      4.794547  
     135A      4.878275   136A      5.192707  

    Final Occupation by Irrep:
              A 
    DOCC [    29 ]

  Energy converged.

  @DF-RHF Final Energy:  -344.59203365880751

   => Energetics <=

    Nuclear Repulsion Energy =            345.7532708948095888
    One-Electron Energy =               -1152.6903718895705424
    Two-Electron Energy =                 462.3450673359548659
    DFT Exchange-Correlation Energy =       0.0000000000000000
    Empirical Dispersion Energy =           0.0000000000000000
    PCM Polarization Energy =               0.0000000000000000
    EFP Energy =                            0.0000000000000000
    Total Energy =                       -344.5920336588060877

    Alert: EFP and PCM quantities not currently incorporated into SCF psivars.

Properties will be evaluated at   0.000000,   0.000000,   0.000000 Bohr
  ==> Properties <==


Properties computed using the SCF density matrix

  Nuclear Dipole Moment: (a.u.)
     X:     1.0713      Y:     5.7637      Z:     1.8031

  Electronic Dipole Moment: (a.u.)
     X:    -1.2887      Y:    -5.0923      Z:    -1.7882

  Dipole Moment: (a.u.)
     X:    -0.2174      Y:     0.6713      Z:     0.0149     Total:     0.7058

  Dipole Moment: (Debye)
     X:    -0.5527      Y:     1.7064      Z:     0.0380     Total:     1.7940


  Saving occupied orbitals to File 180.

*** tstop() called on cx1-3-1-3.cx1.hpc.ic.ac.uk at Tue Jul  5 16:29:52 2016
Module time:
	user time   =      11.15 seconds =       0.19 minutes
	system time =       0.06 seconds =       0.00 minutes
	total time  =         12 seconds =       0.20 minutes
Total time:
	user time   =      11.15 seconds =       0.19 minutes
	system time =       0.06 seconds =       0.00 minutes
	total time  =         12 seconds =       0.20 minutes


Properties will be evaluated at   0.000000,   0.000000,   0.000000 Bohr

Properties computed using the  density matrix

  Nuclear Dipole Moment: (a.u.)
     X:     1.0713      Y:     5.7637      Z:     1.8031

  Electronic Dipole Moment: (a.u.)
     X:    -1.2887      Y:    -5.0923      Z:    -1.7882

  Dipole Moment: (a.u.)
     X:    -0.2174      Y:     0.6713      Z:     0.0149     Total:     0.7058

  Dipole Moment: (Debye)
     X:    -0.5527      Y:     1.7064      Z:     0.0380     Total:     1.7940

  Quadrupole Moment: (Debye Ang)
    XX:   -39.7498     YY:   -49.2535     ZZ:   -49.1103
    XY:    -1.6160     XZ:    -1.8373     YZ:     2.5276

  Traceless Quadrupole Moment: (Debye Ang)
    XX:     6.2880     YY:    -3.2157     ZZ:    -3.0724
    XY:    -1.6160     XZ:    -1.8373     YZ:     2.5276

  Mulliken Charges: (a.u.)
   Center  Symbol    Alpha    Beta     Spin     Total
       1     H     0.27065  0.27065  0.00000  0.45870
       2     O     4.38311  4.38311  0.00000 -0.76623
       3     C     2.78498  2.78498  0.00000  0.43004
       4     C     3.13050  3.13050  0.00000 -0.26100
       5     C     3.16101  3.16101  0.00000 -0.32201
       6     H     0.39376  0.39376  0.00000  0.21249
       7     C     3.08827  3.08827  0.00000 -0.17654
       8     H     0.40585  0.40585  0.00000  0.18831
       9     C     2.96938  2.96938  0.00000  0.06125
      10     H     0.39787  0.39787  0.00000  0.20427
      11     C     3.12312  3.12312  0.00000 -0.24624
      12     C     3.25493  3.25493  0.00000 -0.50986
      13     H     0.40305  0.40305  0.00000  0.19389
      14     H     0.41079  0.41079  0.00000  0.17841
      15     H     0.41346  0.41346  0.00000  0.17309
      16     H     0.40928  0.40928  0.00000  0.18144

   Total alpha = 29.00000, Total beta = 29.00000, Total charge = -0.00000


*** PSI4 exiting successfully. Buy a developer a beer!
