    -----------------------------------------------------------------------
          Psi4: An Open-Source Ab Initio Electronic Structure Package
                              Psi4 (no tag) Driver

                          Git: Rev {detached?}  

    J. M. Turney, A. C. Simmonett, R. M. Parrish, E. G. Hohenstein,
    F. A. Evangelista, J. T. Fermann, B. J. Mintz, L. A. Burns, J. J. Wilke,
    M. L. Abrams, N. J. Russ, M. L. Leininger, C. L. Janssen, E. T. Seidl,
    W. D. Allen, H. F. Schaefer, R. A. King, E. F. Valeev, C. D. Sherrill,
    and T. D. Crawford, WIREs Comput. Mol. Sci. 2, 556-565 (2012)
    (doi: 10.1002/wcms.93)

                         Additional Contributions by
    A. E. DePrince, M. Saitow, U. Bozkaya, A. Yu. Sokolov
    -----------------------------------------------------------------------


    Psi4 started on: Tue Jul  5 16:22:40 2016

    Process ID:  25812
    PSI4DATADIR: /export131/home/mjharvey/miniconda3/share
    Memory level set to 256.000 MB

  ==> Input File <==

--------------------------------------------------------------------------
set {
	reference rhf
	basis 6-31G*
}


set_num_threads( 1 )
memory 2 gb

molecule MOL {
0 1

H	 -0.216825	 0.021369	 -3.357402
C	 0.374198	 0.036393	 -2.447010
C	 -0.521757	 -0.028637	 -1.217342
H	 0.969602	 0.942322	 -2.434777
H	 1.053364	 -0.811668	 -2.481329
N	 0.263400	 0.031178	 0.000000
H	 -1.199035	 0.820290	 -1.219355
H	 -1.147901	 -0.924895	 -1.265384
C	 -0.521757	 -0.028637	 1.217342
H	 0.935769	 -0.712709	 0.000000
C	 0.263527	 0.523395	 2.399559
H	 -1.415665	 0.569532	 1.067313
H	 -0.862358	 -1.043718	 1.443714
H	 0.570407	 1.545198	 2.206929
H	 -0.335948	 0.505400	 3.304354
H	 1.157440	 -0.066656	 2.585062

	symmetry c1
}
ee = energy('scf')
oeprop('DIPOLE', 'QUADRUPOLE', 'MULLIKEN_CHARGES')
f=open( 'psi4out.xyz', 'w' )
f.write( "16  " )
f.write( str(ee) + "\n" )
f.write( MOL.save_string_xyz() )
f.close()
--------------------------------------------------------------------------

  Memory set to   2.000 GiB by Python script.

*** tstart() called on cx1-3-1-3.cx1.hpc.ic.ac.uk
*** at Tue Jul  5 16:22:40 2016


         ---------------------------------------------------------
                                   SCF
            by Justin Turney, Rob Parrish, and Andy Simmonett
                              RHF Reference
                        1 Threads,   2000 MiB Core
         ---------------------------------------------------------

  ==> Geometry <==

    Molecular point group: c1
    Full point group: C1

    Geometry (in Angstrom), charge = 0, multiplicity = 1:

       Center              X                  Y                   Z               Mass       
    ------------   -----------------  -----------------  -----------------  -----------------
           H         -0.193893394059    -0.078752958887    -3.347530936948     1.007825032070
           C          0.397129605941    -0.063728958887    -2.437138936948    12.000000000000
           C         -0.498825394059    -0.128758958887    -1.207470936948    12.000000000000
           H          0.992533605941     0.842200041113    -2.424905936948     1.007825032070
           H          1.076295605941    -0.911789958887    -2.471457936948     1.007825032070
           N          0.286331605941    -0.068943958887     0.009871063052    14.003074004780
           H         -1.176103394059     0.720168041113    -1.209483936948     1.007825032070
           H         -1.124969394059    -1.025016958887    -1.255512936948     1.007825032070
           C         -0.498825394059    -0.128758958887     1.227213063052    12.000000000000
           H          0.958700605941    -0.812830958887     0.009871063052     1.007825032070
           C          0.286458605941     0.423273041113     2.409430063052    12.000000000000
           H         -1.392733394059     0.469410041113     1.077184063052     1.007825032070
           H         -0.839426394059    -1.143839958887     1.453585063052     1.007825032070
           H          0.593338605941     1.445076041113     2.216800063052     1.007825032070
           H         -0.313016394059     0.405278041113     3.314225063052     1.007825032070
           H          1.180371605941    -0.166777958887     2.594933063052     1.007825032070

  Running in c1 symmetry.

  Rotational constants: A =      0.57969  B =      0.07062  C =      0.06701 [cm^-1]
  Rotational constants: A =  17378.59352  B =   2117.17832  C =   2008.87662 [MHz]
  Nuclear repulsion =  189.225094778097997

  Charge       = 0
  Multiplicity = 1
  Electrons    = 42
  Nalpha       = 21
  Nbeta        = 21

  ==> Algorithm <==

  SCF Algorithm Type is DF.
  DIIS enabled.
  MOM disabled.
  Fractional occupation disabled.
  Guess Type is CORE.
  Energy threshold   = 1.00e-06
  Density threshold  = 1.00e-06
  Integral threshold = 0.00e+00

  ==> Primary Basis <==

  Basis Set: 6-31G*
    Number of shells: 52
    Number of basis function: 97
    Number of Cartesian functions: 97
    Spherical Harmonics?: false
    Max angular momentum: 2

  ==> Pre-Iterations <==

   -------------------------------------------------------
    Irrep   Nso     Nmo     Nalpha   Nbeta   Ndocc  Nsocc
   -------------------------------------------------------
     A         97      97       0       0       0       0
   -------------------------------------------------------
    Total      97      97      21      21      21       0
   -------------------------------------------------------

 OEINTS: Overlap, kinetic, potential, dipole, and quadrupole integrals
         stored in file 35.

  ==> Integral Setup <==

  ==> DFJK: Density-Fitted J/K Matrices <==

    J tasked:                  Yes
    K tasked:                  Yes
    wK tasked:                  No
    OpenMP threads:              1
    Integrals threads:           1
    Memory (MB):              1430
    Algorithm:                Core
    Integral Cache:           NONE
    Schwarz Cutoff:          1E-12
    Fitting Condition:       1E-12

   => Auxiliary Basis Set <=

  Basis Set: 
    Number of shells: 219
    Number of basis function: 680
    Number of Cartesian functions: 680
    Spherical Harmonics?: false
    Max angular momentum: 3

  Minimum eigenvalue in the overlap matrix is 4.2744985521E-03.
  Using Symmetric Orthogonalization.
  SCF Guess: Core (One-Electron) Hamiltonian.

  ==> Iterations <==

                           Total Energy        Delta E     RMS |[F,P]|

   @DF-RHF iter   1:  -147.65380310818372   -1.47654e+02   8.23395e-02 
   @DF-RHF iter   2:  -155.39559387968538   -7.74179e+00   5.72638e-02 DIIS
   @DF-RHF iter   3:  -180.20994429709376   -2.48144e+01   5.64524e-02 DIIS
   @DF-RHF iter   4:  -211.96045867919818   -3.17505e+01   7.61600e-03 DIIS
   @DF-RHF iter   5:  -212.29248617657933   -3.32027e-01   1.94638e-03 DIIS
   @DF-RHF iter   6:  -212.31101008758307   -1.85239e-02   5.04638e-04 DIIS
   @DF-RHF iter   7:  -212.31225038455366   -1.24030e-03   2.46644e-04 DIIS
   @DF-RHF iter   8:  -212.31250541815311   -2.55034e-04   1.05626e-04 DIIS
   @DF-RHF iter   9:  -212.31257263131593   -6.72132e-05   2.79593e-05 DIIS
   @DF-RHF iter  10:  -212.31257759801267   -4.96670e-06   6.25377e-06 DIIS
   @DF-RHF iter  11:  -212.31257790414034   -3.06128e-07   1.81436e-06 DIIS
   @DF-RHF iter  12:  -212.31257793214175   -2.80014e-08   3.82778e-07 DIIS

  ==> Post-Iterations <==

    Orbital Energies (a.u.)
    -----------------------

    Doubly Occupied:                                                      

       1A    -15.533798     2A    -11.241036     3A    -11.240495  
       4A    -11.208306     5A    -11.204172     6A     -1.205530  
       7A     -1.026953     8A     -0.962427     9A     -0.832095  
      10A     -0.819503    11A     -0.664996    12A     -0.626918  
      13A     -0.601264    14A     -0.577707    15A     -0.556056  
      16A     -0.522078    17A     -0.506953    18A     -0.488460  
      19A     -0.481734    20A     -0.473511    21A     -0.358642  

    Virtual:                                                              

      22A      0.229930    23A      0.256807    24A      0.270644  
      25A      0.291168    26A      0.318470    27A      0.324907  
      28A      0.327290    29A      0.329299    30A      0.347136  
      31A      0.354276    32A      0.356244    33A      0.397106  
      34A      0.430562    35A      0.453265    36A      0.458913  
      37A      0.705357    38A      0.738684    39A      0.740314  
      40A      0.756933    41A      0.769319    42A      0.800882  
      43A      0.866043    44A      0.900628    45A      0.917423  
      46A      0.958929    47A      0.970126    48A      1.054358  
      49A      1.083825    50A      1.123488    51A      1.163712  
      52A      1.165432    53A      1.172666    54A      1.180424  
      55A      1.196910    56A      1.205097    57A      1.224300  
      58A      1.235216    59A      1.244518    60A      1.256939  
      61A      1.272092    62A      1.281746    63A      1.369937  
      64A      1.554341    65A      1.604311    66A      1.670751  
      67A      1.726462    68A      1.775893    69A      1.890771  
      70A      1.918897    71A      2.036948    72A      2.106200  
      73A      2.224951    74A      2.261040    75A      2.277125  
      76A      2.307646    77A      2.333788    78A      2.408188  
      79A      2.423741    80A      2.460845    81A      2.579131  
      82A      2.593515    83A      2.628557    84A      2.659692  
      85A      2.681251    86A      2.757938    87A      2.803759  
      88A      2.822308    89A      2.945848    90A      3.019760  
      91A      3.164168    92A      3.231325    93A      4.346976  
      94A      4.626478    95A      4.629740    96A      4.822777  
      97A      4.894980  

    Final Occupation by Irrep:
              A 
    DOCC [    21 ]

  Energy converged.

  @DF-RHF Final Energy:  -212.31257793214175

   => Energetics <=

    Nuclear Repulsion Energy =            189.2250947780979971
    One-Electron Energy =                -660.8099424577488890
    Two-Electron Energy =                 259.2722697475089149
    DFT Exchange-Correlation Energy =       0.0000000000000000
    Empirical Dispersion Energy =           0.0000000000000000
    PCM Polarization Energy =               0.0000000000000000
    EFP Energy =                            0.0000000000000000
    Total Energy =                       -212.3125779321420055

    Alert: EFP and PCM quantities not currently incorporated into SCF psivars.

Properties will be evaluated at   0.000000,   0.000000,   0.000000 Bohr
  ==> Properties <==


Properties computed using the SCF density matrix

  Nuclear Dipole Moment: (a.u.)
     X:    -0.2248      Y:    -0.2406      Z:    -0.0397

  Electronic Dipole Moment: (a.u.)
     X:     0.0505      Y:    -0.1288      Z:     0.0096

  Dipole Moment: (a.u.)
     X:    -0.1743      Y:    -0.3694      Z:    -0.0300     Total:     0.4096

  Dipole Moment: (Debye)
     X:    -0.4431      Y:    -0.9389      Z:    -0.0763     Total:     1.0410


  Saving occupied orbitals to File 180.

*** tstop() called on cx1-3-1-3.cx1.hpc.ic.ac.uk at Tue Jul  5 16:22:45 2016
Module time:
	user time   =       4.82 seconds =       0.08 minutes
	system time =       0.04 seconds =       0.00 minutes
	total time  =          5 seconds =       0.08 minutes
Total time:
	user time   =       4.82 seconds =       0.08 minutes
	system time =       0.04 seconds =       0.00 minutes
	total time  =          5 seconds =       0.08 minutes


Properties will be evaluated at   0.000000,   0.000000,   0.000000 Bohr

Properties computed using the  density matrix

  Nuclear Dipole Moment: (a.u.)
     X:    -0.2248      Y:    -0.2406      Z:    -0.0397

  Electronic Dipole Moment: (a.u.)
     X:     0.0505      Y:    -0.1288      Z:     0.0096

  Dipole Moment: (a.u.)
     X:    -0.1743      Y:    -0.3694      Z:    -0.0300     Total:     0.4096

  Dipole Moment: (Debye)
     X:    -0.4431      Y:    -0.9389      Z:    -0.0763     Total:     1.0410

  Quadrupole Moment: (Debye Ang)
    XX:   -34.1212     YY:   -33.8982     ZZ:   -33.8039
    XY:    -1.7346     XZ:     0.0102     YZ:    -0.1831

  Traceless Quadrupole Moment: (Debye Ang)
    XX:    -0.1801     YY:     0.0429     ZZ:     0.1372
    XY:    -1.7346     XZ:     0.0102     YZ:    -0.1831

  Mulliken Charges: (a.u.)
   Center  Symbol    Alpha    Beta     Spin     Total
       1     H     0.42021  0.42021  0.00000  0.15957
       2     C     3.24240  3.24240  0.00000 -0.48479
       3     C     3.05307  3.05307  0.00000 -0.10615
       4     H     0.41198  0.41198  0.00000  0.17604
       5     H     0.42487  0.42487  0.00000  0.15026
       6     N     3.84881  3.84881  0.00000 -0.69761
       7     H     0.42001  0.42001  0.00000  0.15997
       8     H     0.43564  0.43564  0.00000  0.12872
       9     C     3.05778  3.05778  0.00000 -0.11557
      10     H     0.33495  0.33495  0.00000  0.33011
      11     C     3.23392  3.23392  0.00000 -0.46785
      12     H     0.42109  0.42109  0.00000  0.15782
      13     H     0.43316  0.43316  0.00000  0.13367
      14     H     0.41367  0.41367  0.00000  0.17266
      15     H     0.42395  0.42395  0.00000  0.15210
      16     H     0.42448  0.42448  0.00000  0.15103

   Total alpha = 21.00000, Total beta = 21.00000, Total charge = -0.00000


*** PSI4 exiting successfully. Buy a developer a beer!
