    -----------------------------------------------------------------------
          Psi4: An Open-Source Ab Initio Electronic Structure Package
                              Psi4 (no tag) Driver

                          Git: Rev {detached?}  

    J. M. Turney, A. C. Simmonett, R. M. Parrish, E. G. Hohenstein,
    F. A. Evangelista, J. T. Fermann, B. J. Mintz, L. A. Burns, J. J. Wilke,
    M. L. Abrams, N. J. Russ, M. L. Leininger, C. L. Janssen, E. T. Seidl,
    W. D. Allen, H. F. Schaefer, R. A. King, E. F. Valeev, C. D. Sherrill,
    and T. D. Crawford, WIREs Comput. Mol. Sci. 2, 556-565 (2012)
    (doi: 10.1002/wcms.93)

                         Additional Contributions by
    A. E. DePrince, M. Saitow, U. Bozkaya, A. Yu. Sokolov
    -----------------------------------------------------------------------


    Psi4 started on: Tue Jul  5 16:37:25 2016

    Process ID:  23329
    PSI4DATADIR: /export131/home/mjharvey/miniconda3/share
    Memory level set to 256.000 MB

  ==> Input File <==

--------------------------------------------------------------------------
set {
	reference rhf
	basis 6-31G*
}


set_num_threads( 1 )
memory 2 gb

molecule MOL {
0 1

H	 -2.258317	 -0.920211	 0.781428
O	 -2.347518	 -0.290803	 0.079804
C	 -1.184022	 0.487508	 -0.006784
C	 0.062599	 -0.378592	 0.031606
H	 -1.176523	 1.099369	 -0.904519
H	 -1.187323	 1.153111	 0.844927
O	 -0.043959	 -1.331029	 -0.978982
H	 0.152937	 -0.862108	 1.006301
H	 0.944499	 0.244194	 -0.106143
C	 1.140814	 -1.576311	 -1.668396
H	 1.917268	 -1.951374	 -1.004261
H	 0.932152	 -2.324097	 -2.420844
H	 1.509468	 -0.676823	 -2.157076

	symmetry c1
}
set optking {
	frozen_dihedral = ("
		8 4 3 5,
		1 2 3 5,
		4 7 10 13
	")
}

ee = energy('scf')
oeprop('DIPOLE', 'QUADRUPOLE', 'MULLIKEN_CHARGES')
f=open( 'psi4out.xyz', 'w' )
f.write( "13  " )
f.write( str(ee) + "\n" )
f.write( MOL.save_string_xyz() )
f.close()
--------------------------------------------------------------------------

  Memory set to   2.000 GiB by Python script.

*** tstart() called on cx1-49-4-2.cx1.hpc.ic.ac.uk
*** at Tue Jul  5 16:37:26 2016


         ---------------------------------------------------------
                                   SCF
            by Justin Turney, Rob Parrish, and Andy Simmonett
                              RHF Reference
                        1 Threads,   2000 MiB Core
         ---------------------------------------------------------

  ==> Geometry <==

    Molecular point group: c1
    Full point group: C1

    Geometry (in Angstrom), charge = 0, multiplicity = 1:

       Center              X                  Y                   Z               Mass       
    ------------   -----------------  -----------------  -----------------  -----------------
           H         -1.769468841702    -0.291422338113     1.282350050495     1.007825032070
           O         -1.858669841702     0.337985661887     0.580726050495    15.994914619560
           C         -0.695173841702     1.116296661887     0.494138050495    12.000000000000
           C          0.551447158298     0.250196661887     0.532528050495    12.000000000000
           H         -0.687674841702     1.728157661887    -0.403596949505     1.007825032070
           H         -0.698474841702     1.781899661887     1.345849050495     1.007825032070
           O          0.444889158298    -0.702240338113    -0.478059949505    15.994914619560
           H          0.641785158298    -0.233319338113     1.507223050495     1.007825032070
           H          1.433347158298     0.872982661887     0.394779050495     1.007825032070
           C          1.629662158298    -0.947522338113    -1.167473949505    12.000000000000
           H          2.406116158298    -1.322585338113    -0.503338949505     1.007825032070
           H          1.421000158298    -1.695308338113    -1.919921949505     1.007825032070
           H          1.998316158298    -0.048034338113    -1.656153949505     1.007825032070

  Running in c1 symmetry.

  Rotational constants: A =      0.45102  B =      0.09185  C =      0.08401 [cm^-1]
  Rotational constants: A =  13521.26948  B =   2753.55757  C =   2518.63845 [MHz]
  Nuclear repulsion =  194.494334023767607

  Charge       = 0
  Multiplicity = 1
  Electrons    = 42
  Nalpha       = 21
  Nbeta        = 21

  ==> Algorithm <==

  SCF Algorithm Type is DF.
  DIIS enabled.
  MOM disabled.
  Fractional occupation disabled.
  Guess Type is CORE.
  Energy threshold   = 1.00e-06
  Density threshold  = 1.00e-06
  Integral threshold = 0.00e+00

  ==> Primary Basis <==

  Basis Set: 6-31G*
    Number of shells: 46
    Number of basis function: 91
    Number of Cartesian functions: 91
    Spherical Harmonics?: false
    Max angular momentum: 2

  ==> Pre-Iterations <==

   -------------------------------------------------------
    Irrep   Nso     Nmo     Nalpha   Nbeta   Ndocc  Nsocc
   -------------------------------------------------------
     A         91      91       0       0       0       0
   -------------------------------------------------------
    Total      91      91      21      21      21       0
   -------------------------------------------------------

 OEINTS: Overlap, kinetic, potential, dipole, and quadrupole integrals
         stored in file 35.

  ==> Integral Setup <==

  ==> DFJK: Density-Fitted J/K Matrices <==

    J tasked:                  Yes
    K tasked:                  Yes
    wK tasked:                  No
    OpenMP threads:              1
    Integrals threads:           1
    Memory (MB):              1430
    Algorithm:                Core
    Integral Cache:           NONE
    Schwarz Cutoff:          1E-12
    Fitting Condition:       1E-12

   => Auxiliary Basis Set <=

  Basis Set: 
    Number of shells: 192
    Number of basis function: 605
    Number of Cartesian functions: 605
    Spherical Harmonics?: false
    Max angular momentum: 3

  Minimum eigenvalue in the overlap matrix is 4.7879213874E-03.
  Using Symmetric Orthogonalization.
  SCF Guess: Core (One-Electron) Hamiltonian.

  ==> Iterations <==

                           Total Energy        Delta E     RMS |[F,P]|

   @DF-RHF iter   1:  -223.64330296159832   -2.23643e+02   7.94180e-02 
   @DF-RHF iter   2:  -167.36178960565556    5.62815e+01   6.65680e-02 DIIS
   @DF-RHF iter   3:  -229.85865636574218   -6.24969e+01   7.03761e-02 DIIS
   @DF-RHF iter   4:  -252.53794148171951   -2.26793e+01   3.78330e-02 DIIS
   @DF-RHF iter   5:  -267.18752427918866   -1.46496e+01   1.35034e-02 DIIS
   @DF-RHF iter   6:  -267.89972932349247   -7.12205e-01   3.44326e-03 DIIS
   @DF-RHF iter   7:  -267.93899102428622   -3.92617e-02   8.87625e-04 DIIS
   @DF-RHF iter   8:  -267.94180328596838   -2.81226e-03   2.56813e-04 DIIS
   @DF-RHF iter   9:  -267.94212847355448   -3.25188e-04   6.05771e-05 DIIS
   @DF-RHF iter  10:  -267.94214857957547   -2.01060e-05   2.78225e-05 DIIS
   @DF-RHF iter  11:  -267.94215159931287   -3.01974e-06   1.26880e-05 DIIS
   @DF-RHF iter  12:  -267.94215233688556   -7.37573e-07   5.57057e-06 DIIS
   @DF-RHF iter  13:  -267.94215248243017   -1.45545e-07   2.19264e-06 DIIS
   @DF-RHF iter  14:  -267.94215250733532   -2.49051e-08   3.47080e-07 DIIS

  ==> Post-Iterations <==

    Orbital Energies (a.u.)
    -----------------------

    Doubly Occupied:                                                      

       1A    -20.558585     2A    -20.548212     3A    -11.275863  
       4A    -11.269754     5A    -11.269261     6A     -1.389474  
       7A     -1.352697     8A     -1.018400     9A     -0.920466  
      10A     -0.839027    11A     -0.691570    12A     -0.675442  
      13A     -0.669496    14A     -0.626581    15A     -0.608495  
      16A     -0.571165    17A     -0.534324    18A     -0.498340  
      19A     -0.471736    20A     -0.440342    21A     -0.411396  

    Virtual:                                                              

      22A      0.222580    23A      0.252628    24A      0.278977  
      25A      0.296770    26A      0.317102    27A      0.317476  
      28A      0.324112    29A      0.331810    30A      0.348032  
      31A      0.411733    32A      0.441639    33A      0.449227  
      34A      0.731590    35A      0.770552    36A      0.787849  
      37A      0.811763    38A      0.825105    39A      0.842456  
      40A      0.849841    41A      0.917800    42A      0.984452  
      43A      1.062536    44A      1.091864    45A      1.122626  
      46A      1.132798    47A      1.153084    48A      1.159654  
      49A      1.179252    50A      1.211524    51A      1.228786  
      52A      1.246121    53A      1.272975    54A      1.332626  
      55A      1.360637    56A      1.405845    57A      1.452821  
      58A      1.602277    59A      1.643800    60A      1.701216  
      61A      1.726994    62A      1.777896    63A      1.855025  
      64A      1.893230    65A      1.995226    66A      2.046727  
      67A      2.136759    68A      2.219199    69A      2.274511  
      70A      2.401603    71A      2.421386    72A      2.424960  
      73A      2.445659    74A      2.502620    75A      2.537880  
      76A      2.564505    77A      2.659583    78A      2.738998  
      79A      2.761256    80A      2.837146    81A      2.862025  
      82A      2.916395    83A      3.030253    84A      3.185746  
      85A      3.203806    86A      3.328433    87A      4.181074  
      88A      4.362529    89A      4.628401    90A      4.685839  
      91A      4.866224  

    Final Occupation by Irrep:
              A 
    DOCC [    21 ]

  Energy converged.

  @DF-RHF Final Energy:  -267.94215250733532

   => Energetics <=

    Nuclear Repulsion Energy =            194.4943340237676068
    One-Electron Energy =                -751.5917393807317239
    Two-Electron Energy =                 289.1552528496291643
    DFT Exchange-Correlation Energy =       0.0000000000000000
    Empirical Dispersion Energy =           0.0000000000000000
    PCM Polarization Energy =               0.0000000000000000
    EFP Energy =                            0.0000000000000000
    Total Energy =                       -267.9421525073349812

    Alert: EFP and PCM quantities not currently incorporated into SCF psivars.

Properties will be evaluated at   0.000000,   0.000000,   0.000000 Bohr
  ==> Properties <==


Properties computed using the SCF density matrix

  Nuclear Dipole Moment: (a.u.)
     X:     4.4414      Y:     0.7411      Z:     0.0447

  Electronic Dipole Moment: (a.u.)
     X:    -3.3432      Y:    -0.5779      Z:     0.4160

  Dipole Moment: (a.u.)
     X:     1.0982      Y:     0.1631      Z:     0.4607     Total:     1.2021

  Dipole Moment: (Debye)
     X:     2.7914      Y:     0.4147      Z:     1.1711     Total:     3.0554


  Saving occupied orbitals to File 180.

*** tstop() called on cx1-49-4-2.cx1.hpc.ic.ac.uk at Tue Jul  5 16:37:31 2016
Module time:
	user time   =       4.48 seconds =       0.07 minutes
	system time =       0.04 seconds =       0.00 minutes
	total time  =          5 seconds =       0.08 minutes
Total time:
	user time   =       4.48 seconds =       0.07 minutes
	system time =       0.04 seconds =       0.00 minutes
	total time  =          5 seconds =       0.08 minutes


Properties will be evaluated at   0.000000,   0.000000,   0.000000 Bohr

Properties computed using the  density matrix

  Nuclear Dipole Moment: (a.u.)
     X:     4.4414      Y:     0.7411      Z:     0.0447

  Electronic Dipole Moment: (a.u.)
     X:    -3.3432      Y:    -0.5779      Z:     0.4160

  Dipole Moment: (a.u.)
     X:     1.0982      Y:     0.1631      Z:     0.4607     Total:     1.2021

  Dipole Moment: (Debye)
     X:     2.7914      Y:     0.4147      Z:     1.1711     Total:     3.0554

  Quadrupole Moment: (Debye Ang)
    XX:   -34.0908     YY:   -30.3888     ZZ:   -27.9055
    XY:     0.8399     XZ:    -2.7773     YZ:    -0.5443

  Traceless Quadrupole Moment: (Debye Ang)
    XX:    -3.2957     YY:     0.4062     ZZ:     2.8895
    XY:     0.8399     XZ:    -2.7773     YZ:    -0.5443

  Mulliken Charges: (a.u.)
   Center  Symbol    Alpha    Beta     Spin     Total
       1     H     0.28098  0.28098  0.00000  0.43805
       2     O     4.36539  4.36539  0.00000 -0.73078
       3     C     2.98945  2.98945  0.00000  0.02111
       4     C     3.01456  3.01456  0.00000 -0.02912
       5     H     0.41337  0.41337  0.00000  0.17325
       6     H     0.43183  0.43183  0.00000  0.13635
       7     O     4.29572  4.29572  0.00000 -0.59144
       8     H     0.43007  0.43007  0.00000  0.13985
       9     H     0.42787  0.42787  0.00000  0.14425
      10     C     3.08154  3.08154  0.00000 -0.16308
      11     H     0.42994  0.42994  0.00000  0.14013
      12     H     0.41008  0.41008  0.00000  0.17985
      13     H     0.42920  0.42920  0.00000  0.14159

   Total alpha = 21.00000, Total beta = 21.00000, Total charge = -0.00000


*** PSI4 exiting successfully. Buy a developer a beer!
