
    -----------------------------------------------------------------------
          Psi4: An Open-Source Ab Initio Electronic Structure Package
                               Psi4 1.1 release

                         Git: Rev {HEAD} add49b9 


    R. M. Parrish, L. A. Burns, D. G. A. Smith, A. C. Simmonett,
    A. E. DePrince III, E. G. Hohenstein, U. Bozkaya, A. Yu. Sokolov,
    R. Di Remigio, R. M. Richard, J. F. Gonthier, A. M. James,
    H. R. McAlexander, A. Kumar, M. Saitow, X. Wang, B. P. Pritchard,
    P. Verma, H. F. Schaefer III, K. Patkowski, R. A. King, E. F. Valeev,
    F. A. Evangelista, J. M. Turney, T. D. Crawford, and C. D. Sherrill,
    J. Chem. Theory Comput. in press (2017).
    (doi: 10.1021/acs.jctc.7b00174)

    -----------------------------------------------------------------------


    Psi4 started on: Wednesday, 06 September 2017 12:55PM

    Process ID:  32356
    PSIDATADIR: /home/raimis/opt/miniconda3/envs/htmd/share/psi4
    Memory:     500.0 MiB
    Threads:    1
    
  ==> Input File <==

--------------------------------------------------------------------------
set_num_threads( 8 )
memory 2.000000 gb

set { reference rks }
set { basis cc-pVDZ }

molecule MOL {
    0 1
    noreorient
    nocom
    symmetry c1
    O    1.141000   0.017000   0.083000
    C    2.558000   0.086000  -0.005000
    C    3.192000  -0.789000   1.067000
    O    4.610000  -0.719000   0.979000
    H    0.789000   0.590000  -0.620000
    H    2.874000   1.128000   0.115000
    H    2.871000  -0.243000  -1.001000
    H    2.876000  -1.830000   0.947000
    H    2.879000  -0.459000   2.064000
    H    4.899190  -1.518901   0.506333
}

set optking { frozen_dihedral = (" 1 2 3 4, 2 3 4 10 ") }

energy, wfn = energy('B3LYP-D3', return_wfn=True)

import os
os.chdir(os.environ['HTMD_PSI4_WORKDIR'])

oeprop(wfn, 'DIPOLE', 'QUADRUPOLE', 'MULLIKEN_CHARGES')

with open('psi4out.xyz', 'w') as f:
    f.write('10 ' )
    f.write('%.12f\n' % energy)
    f.write(MOL.save_string_xyz())
--------------------------------------------------------------------------
  Threads set to 8 by Python driver.

  Memory set to   1.863 GiB by Python driver.

*** tstart() called on computer03
*** at Wed Sep  6 12:55:49 2017

   => Loading Basis Set <=

    Name: CC-PVDZ
    Role: ORBITAL
    Keyword: BASIS
    atoms 1, 4 entry O          line   190 file /home/raimis/opt/miniconda3/envs/htmd/share/psi4/basis/cc-pvdz.gbs 
    atoms 2-3  entry C          line   130 file /home/raimis/opt/miniconda3/envs/htmd/share/psi4/basis/cc-pvdz.gbs 
    atoms 5-10 entry H          line    20 file /home/raimis/opt/miniconda3/envs/htmd/share/psi4/basis/cc-pvdz.gbs 


         ---------------------------------------------------------
                                   SCF
            by Justin Turney, Rob Parrish, and Andy Simmonett
                              RKS Reference
                        8 Threads,   1907 MiB Core
         ---------------------------------------------------------

  ==> Geometry <==

    Molecular point group: c1
    Full point group: C1

    Geometry (in Angstrom), charge = 0, multiplicity = 1:

       Center              X                  Y                   Z               Mass       
    ------------   -----------------  -----------------  -----------------  -----------------
           O          1.141000000000     0.017000000000     0.083000000000    15.994914619560
           C          2.558000000000     0.086000000000    -0.005000000000    12.000000000000
           C          3.192000000000    -0.789000000000     1.067000000000    12.000000000000
           O          4.610000000000    -0.719000000000     0.979000000000    15.994914619560
           H          0.789000000000     0.590000000000    -0.620000000000     1.007825032070
           H          2.874000000000     1.128000000000     0.115000000000     1.007825032070
           H          2.871000000000    -0.243000000000    -1.001000000000     1.007825032070
           H          2.876000000000    -1.830000000000     0.947000000000     1.007825032070
           H          2.879000000000    -0.459000000000     2.064000000000     1.007825032070
           H          4.899190000000    -1.518901000000     0.506333000000     1.007825032070

  Running in c1 symmetry.

  Rotational constants: A =      0.81673  B =      0.02545  C =      0.02497 [cm^-1]
  Rotational constants: A =  24484.96292  B =    762.85227  C =    748.67108 [MHz]
  Nuclear repulsion =  129.659956219996644

  Charge       = 0
  Multiplicity = 1
  Electrons    = 34
  Nalpha       = 17
  Nbeta        = 17

  ==> Algorithm <==

  SCF Algorithm Type is DF.
  DIIS enabled.
  MOM disabled.
  Fractional occupation disabled.
  Guess Type is SAD.
  Energy threshold   = 1.00e-06
  Density threshold  = 1.00e-06
  Integral threshold = 0.00e+00

  ==> Primary Basis <==

  Basis Set: CC-PVDZ
    Blend: CC-PVDZ
    Number of shells: 42
    Number of basis function: 86
    Number of Cartesian functions: 90
    Spherical Harmonics?: true
    Max angular momentum: 2

  ==> DFT Potential <==

   => B3LYP Composite Functional <= 

    B3LYP Hybrid-GGA Exchange-Correlation Functional (VWN1-RPA)

    P.J. Stephens et. al., J. Phys. Chem., 98, 11623-11627, 1994

    Points   =           5000
    Deriv    =              1
    GGA      =           TRUE
    Meta     =          FALSE

    X_LRC        =          FALSE
    X_Hybrid     =           TRUE
    X_Alpha      =   2.000000E-01
    X_Omega      =   0.000000E+00
    C_LRC        =          FALSE
    C_Hybrid     =          FALSE
    C_Alpha      =   0.000000E+00
    C_Omega      =   0.000000E+00

   => Exchange Functionals <=

    0.8000    B3_X
    0.2000      HF 

   => Correlation Functionals <=

    0.1900 VWN3RPA_C
    0.8100   LYP_C

   => Molecular Quadrature <=

    Radial Scheme    =       TREUTLER
    Pruning Scheme   =           FLAT
    Nuclear Scheme   =       TREUTLER

    BS radius alpha  =              1
    Pruning alpha    =              1
    Radial Points    =             75
    Spherical Points =            302
    Total Points     =         222554
    Total Blocks     =            210
    Max Points       =           4981
    Max Functions    =             86

   => -D3ZERO: Empirical Dispersion <=

    Grimme's -D3 (zero-damping) Dispersion Correction
    Grimme S.; Antony J.; Ehrlich S.; Krieg H. (2010), J. Chem. Phys., 132: 154104

        S6 =   1.000000E+00
        S8 =   1.703000E+00
       SR6 =   1.261000E+00
    ALPHA6 =   1.400000E+01

   => Loading Basis Set <=

    Name: (CC-PVDZ AUX)
    Role: JKFIT
    Keyword: DF_BASIS_SCF
    atoms 1, 4 entry O          line   220 file /home/raimis/opt/miniconda3/envs/htmd/share/psi4/basis/cc-pvdz-jkfit.gbs 
    atoms 2-3  entry C          line   120 file /home/raimis/opt/miniconda3/envs/htmd/share/psi4/basis/cc-pvdz-jkfit.gbs 
    atoms 5-10 entry H          line    50 file /home/raimis/opt/miniconda3/envs/htmd/share/psi4/basis/cc-pvdz-jkfit.gbs 

  ==> Pre-Iterations <==

   -------------------------------------------------------
    Irrep   Nso     Nmo     Nalpha   Nbeta   Ndocc  Nsocc
   -------------------------------------------------------
     A         86      86       0       0       0       0
   -------------------------------------------------------
    Total      86      86      17      17      17       0
   -------------------------------------------------------

  ==> Integral Setup <==

  ==> DFJK: Density-Fitted J/K Matrices <==

    J tasked:                  Yes
    K tasked:                  Yes
    wK tasked:                  No
    OpenMP threads:              8
    Integrals threads:           8
    Memory (MB):              1430
    Algorithm:                Core
    Integral Cache:           NONE
    Schwarz Cutoff:          1E-12
    Fitting Condition:       1E-12

   => Auxiliary Basis Set <=

  Basis Set: (CC-PVDZ AUX)
    Blend: CC-PVDZ-JKFIT
    Number of shells: 150
    Number of basis function: 418
    Number of Cartesian functions: 474
    Spherical Harmonics?: true
    Max angular momentum: 3

  Minimum eigenvalue in the overlap matrix is 5.1168314772E-03.
  Using Symmetric Orthogonalization.

  SCF Guess: Superposition of Atomic Densities via on-the-fly atomic UHF.

  ==> Iterations <==

                           Total Energy        Delta E     RMS |[F,P]|

   @DF-RKS iter   0:  -230.77610406509126   -2.30776e+02   6.93798e-02 
   @DF-RKS iter   1:  -230.16417736159048    6.11927e-01   8.75251e-03 
   @DF-RKS iter   2:  -230.14019577629426    2.39816e-02   8.20732e-03 DIIS
   @DF-RKS iter   3:  -230.25672022414568   -1.16524e-01   8.68588e-04 DIIS
   @DF-RKS iter   4:  -230.25741260808726   -6.92384e-04   4.21807e-04 DIIS
   @DF-RKS iter   5:  -230.25771221274698   -2.99605e-04   8.36752e-05 DIIS
   @DF-RKS iter   6:  -230.25771791969532   -5.70695e-06   4.80346e-06 DIIS
   @DF-RKS iter   7:  -230.25771795302543   -3.33301e-08   3.27962e-06 DIIS
   @DF-RKS iter   8:  -230.25771796155445   -8.52901e-09   8.48567e-07 DIIS

  ==> Post-Iterations <==

    Orbital Energies (a.u.)
    -----------------------

    Doubly Occupied:                                                      

       1A    -19.134567     2A    -19.130839     3A    -10.227073  
       4A    -10.223965     5A     -1.020274     6A     -1.009192  
       7A     -0.730781     8A     -0.609554     9A     -0.523970  
      10A     -0.493674    11A     -0.452636    12A     -0.425832  
      13A     -0.396719    14A     -0.337841    15A     -0.325775  
      16A     -0.269656    17A     -0.263939  

    Virtual:                                                              

      18A      0.042865    19A      0.051778    20A      0.106842  
      21A      0.119359    22A      0.126230    23A      0.163767  
      24A      0.187069    25A      0.246740    26A      0.251555  
      27A      0.434618    28A      0.441836    29A      0.503931  
      30A      0.523789    31A      0.554149    32A      0.588291  
      33A      0.604289    34A      0.623164    35A      0.635668  
      36A      0.648477    37A      0.662349    38A      0.681608  
      39A      0.883477    40A      0.906020    41A      0.910128  
      42A      0.971670    43A      1.015384    44A      1.058780  
      45A      1.062717    46A      1.086677    47A      1.202988  
      48A      1.216793    49A      1.280941    50A      1.341768  
      51A      1.347328    52A      1.399242    53A      1.448359  
      54A      1.522691    55A      1.596022    56A      1.602528  
      57A      1.642193    58A      1.650788    59A      1.667873  
      60A      1.704279    61A      1.734234    62A      1.761664  
      63A      1.828107    64A      1.846647    65A      1.914814  
      66A      1.985152    67A      2.034359    68A      2.083823  
      69A      2.096955    70A      2.163913    71A      2.245053  
      72A      2.289617    73A      2.404350    74A      2.430085  
      75A      2.471265    76A      2.521582    77A      2.912141  
      78A      2.941473    79A      2.969804    80A      3.031210  
      81A      3.066057    82A      3.144589    83A      3.191532  
      84A      3.232362    85A      3.664591    86A      3.691495  

    Final Occupation by Irrep:
              A 
    DOCC [    17 ]

  Energy converged.

  @DF-RKS Final Energy:  -230.25771796155445

   => Energetics <=

    Nuclear Repulsion Energy =            129.6599562199966442
    One-Electron Energy =                -571.0498957623024125
    Two-Electron Energy =                 235.6755741044574961
    DFT Exchange-Correlation Energy =     -24.5388294037061527
    Empirical Dispersion Energy =          -0.0045231200000000
    PCM Polarization Energy =               0.0000000000000000
    EFP Energy =                            0.0000000000000000
    Total Energy =                       -230.2577179615544480



Properties will be evaluated at   0.000000,   0.000000,   0.000000 Bohr

Properties computed using the SCF density matrix

  Nuclear Dipole Moment: (a.u.)
     X:   184.6190      Y:   -22.9921      Z:    31.8973

  Electronic Dipole Moment: (a.u.)
     X:  -184.6479      Y:    22.8360      Z:   -32.5502

  Dipole Moment: (a.u.)
     X:    -0.0288      Y:    -0.1561      Z:    -0.6529     Total:     0.6719

  Dipole Moment: (Debye)
     X:    -0.0733      Y:    -0.3968      Z:    -1.6595     Total:     1.7079


*** tstop() called on computer03 at Wed Sep  6 12:56:08 2017
Module time:
	user time   =      30.87 seconds =       0.51 minutes
	system time =       0.71 seconds =       0.01 minutes
	total time  =         19 seconds =       0.32 minutes
Total time:
	user time   =      30.87 seconds =       0.51 minutes
	system time =       0.71 seconds =       0.01 minutes
	total time  =         19 seconds =       0.32 minutes


Properties will be evaluated at   0.000000,   0.000000,   0.000000 Bohr

Properties computed using the  density matrix

  Nuclear Dipole Moment: (a.u.)
     X:   184.6190      Y:   -22.9921      Z:    31.8973

  Electronic Dipole Moment: (a.u.)
     X:  -184.6479      Y:    22.8360      Z:   -32.5502

  Dipole Moment: (a.u.)
     X:    -0.0288      Y:    -0.1561      Z:    -0.6529     Total:     0.6719

  Dipole Moment: (Debye)
     X:    -0.0733      Y:    -0.3968      Z:    -1.6595     Total:     1.7079

  Quadrupole Moment: (Debye Ang)
    XX:   -27.4221     YY:   -21.0179     ZZ:   -24.9358
    XY:    -5.5932     XZ:    -4.4794     YZ:    -0.7486

  Traceless Quadrupole Moment: (Debye Ang)
    XX:    -2.9635     YY:     3.4407     ZZ:    -0.4772
    XY:    -5.5932     XZ:    -4.4794     YZ:    -0.7486

  Mulliken Charges: (a.u.)
   Center  Symbol    Alpha    Beta     Spin     Total
       1     O     4.14094  4.14094  0.00000 -0.28188
       2     C     2.93670  2.93670  0.00000  0.12660
       3     C     2.93575  2.93575  0.00000  0.12849
       4     O     4.13970  4.13970  0.00000 -0.27939
       5     H     0.42816  0.42816  0.00000  0.14369
       6     H     0.49799  0.49799  0.00000  0.00401
       7     H     0.50658  0.50658  0.00000 -0.01316
       8     H     0.49713  0.49713  0.00000  0.00575
       9     H     0.48854  0.48854  0.00000  0.02293
      10     H     0.42852  0.42852  0.00000  0.14296

   Total alpha = 17.00000, Total beta = 17.00000, Total charge =  0.00000


*** Psi4 exiting successfully. Buy a developer a beer!
