    -----------------------------------------------------------------------
          Psi4: An Open-Source Ab Initio Electronic Structure Package
                              Psi4 (no tag) Driver

                          Git: Rev {detached?}  

    J. M. Turney, A. C. Simmonett, R. M. Parrish, E. G. Hohenstein,
    F. A. Evangelista, J. T. Fermann, B. J. Mintz, L. A. Burns, J. J. Wilke,
    M. L. Abrams, N. J. Russ, M. L. Leininger, C. L. Janssen, E. T. Seidl,
    W. D. Allen, H. F. Schaefer, R. A. King, E. F. Valeev, C. D. Sherrill,
    and T. D. Crawford, WIREs Comput. Mol. Sci. 2, 556-565 (2012)
    (doi: 10.1002/wcms.93)

                         Additional Contributions by
    A. E. DePrince, M. Saitow, U. Bozkaya, A. Yu. Sokolov
    -----------------------------------------------------------------------


    Psi4 started on: Tue Jul 26 13:35:24 2016

    Process ID:  12750
    PSI4DATADIR: /export131/home/mjharvey/miniconda3/share
    Memory level set to 256.000 MB

  ==> Input File <==

--------------------------------------------------------------------------
set {
	reference rhf
	basis 6-31G*
}


set_num_threads( 24 )
memory 2 gb

molecule MOL {
0 1

H	 -0.888670	 0.551563	 0.412545
C	 -1.462692	 -0.347341	 0.527645
C	 -1.224516	 -1.150904	 1.538115
H	 -2.224808	 -0.566274	 -0.197483
O	 -0.058873	 -1.105489	 2.235090
H	 -1.939821	 -1.874959	 1.884974
C	 1.122280	 -0.938099	 1.529193
C	 1.575007	 -2.228300	 0.883472
H	 1.928985	 -0.573371	 2.155427
H	 0.937284	 -0.221590	 0.743120
F	 0.516023	 -2.913006	 0.476399
F	 2.338925	 -2.006426	 -0.172989
F	 2.253173	 -2.987911	 1.717973

	symmetry c1
}
set optking {
	frozen_dihedral = ("
		11 8 7 9,
		3 5 7 9,
		6 3 2 1
	")
}

ee = energy('scf')
oeprop('DIPOLE', 'QUADRUPOLE', 'MULLIKEN_CHARGES')
f=open( 'psi4out.xyz', 'w' )
f.write( "13  " )
f.write( str(ee) + "\n" )
f.write( MOL.save_string_xyz() )
f.close()
--------------------------------------------------------------------------

  Memory set to   2.000 GiB by Python script.

*** tstart() called on cx1b.hpc.ic.ac.uk
*** at Tue Jul 26 13:35:25 2016


         ---------------------------------------------------------
                                   SCF
            by Justin Turney, Rob Parrish, and Andy Simmonett
                              RHF Reference
                       24 Threads,   2000 MiB Core
         ---------------------------------------------------------

  ==> Geometry <==

    Molecular point group: c1
    Full point group: C1

    Geometry (in Angstrom), charge = 0, multiplicity = 1:

       Center              X                  Y                   Z               Mass       
    ------------   -----------------  -----------------  -----------------  -----------------
           H         -1.634697439627     2.349482611689    -0.642225386014     1.007825032070
           C         -2.208719439627     1.450578611689    -0.527125386014    12.000000000000
           C         -1.970543439627     0.647015611689     0.483344613986    12.000000000000
           H         -2.970835439627     1.231645611689    -1.252253386014     1.007825032070
           O         -0.804900439627     0.692430611689     1.180319613986    15.994914619560
           H         -2.685848439627    -0.077039388311     0.830203613986     1.007825032070
           C          0.376252560373     0.859820611689     0.474422613986    12.000000000000
           C          0.828979560373    -0.430380388311    -0.171298386014    12.000000000000
           H          1.182957560373     1.224548611689     1.100656613986     1.007825032070
           H          0.191256560373     1.576329611689    -0.311650386014     1.007825032070
           F         -0.230004439627    -1.115086388311    -0.578371386014    18.998403224000
           F          1.592897560373    -0.208506388311    -1.227759386014    18.998403224000
           F          1.507145560373    -1.189991388311     0.663202613986    18.998403224000

  Running in c1 symmetry.

  Rotational constants: A =      0.13134  B =      0.04775  C =      0.04489 [cm^-1]
  Rotational constants: A =   3937.60444  B =   1431.56750  C =   1345.76926 [MHz]
  Nuclear repulsion =  422.182610810510369

  Charge       = 0
  Multiplicity = 1
  Electrons    = 64
  Nalpha       = 32
  Nbeta        = 32

  ==> Algorithm <==

  SCF Algorithm Type is DF.
  DIIS enabled.
  MOM disabled.
  Fractional occupation disabled.
  Guess Type is CORE.
  Energy threshold   = 1.00e-06
  Density threshold  = 1.00e-06
  Integral threshold = 0.00e+00

  ==> Primary Basis <==

  Basis Set: 6-31G*
    Number of shells: 58
    Number of basis function: 130
    Number of Cartesian functions: 130
    Spherical Harmonics?: false
    Max angular momentum: 2

  ==> Pre-Iterations <==

   -------------------------------------------------------
    Irrep   Nso     Nmo     Nalpha   Nbeta   Ndocc  Nsocc
   -------------------------------------------------------
     A        130     130       0       0       0       0
   -------------------------------------------------------
    Total     130     130      32      32      32       0
   -------------------------------------------------------

 OEINTS: Overlap, kinetic, potential, dipole, and quadrupole integrals
         stored in file 35.

  ==> Integral Setup <==

  ==> DFJK: Density-Fitted J/K Matrices <==

    J tasked:                  Yes
    K tasked:                  Yes
    wK tasked:                  No
    OpenMP threads:             24
    Integrals threads:          24
    Memory (MB):              1430
    Algorithm:                Core
    Integral Cache:           NONE
    Schwarz Cutoff:          1E-12
    Fitting Condition:       1E-12

   => Auxiliary Basis Set <=

  Basis Set: 
    Number of shells: 237
    Number of basis function: 773
    Number of Cartesian functions: 773
    Spherical Harmonics?: false
    Max angular momentum: 3

  Minimum eigenvalue in the overlap matrix is 1.7811152747E-03.
  Using Symmetric Orthogonalization.
  SCF Guess: Core (One-Electron) Hamiltonian.

  ==> Iterations <==

                           Total Energy        Delta E     RMS |[F,P]|

   @DF-RHF iter   1:  -442.38658308439449   -4.42387e+02   7.39521e-02 
   @DF-RHF iter   2:  -209.91393521093107    2.32473e+02   9.88381e-02 DIIS
   @DF-RHF iter   3:  -496.15521698324449   -2.86241e+02   3.43532e-02 DIIS
   @DF-RHF iter   4:  -423.52508991290551    7.26301e+01   6.95641e-02 DIIS
   @DF-RHF iter   5:  -518.90134871786233   -9.53763e+01   2.31117e-02 DIIS
   @DF-RHF iter   6:  -526.97533681993991   -8.07399e+00   8.63904e-03 DIIS
   @DF-RHF iter   7:  -527.47195503152875   -4.96618e-01   2.23510e-03 DIIS
   @DF-RHF iter   8:  -527.51266543930990   -4.07104e-02   4.90889e-04 DIIS
   @DF-RHF iter   9:  -527.51521843443425   -2.55300e-03   2.14744e-04 DIIS
   @DF-RHF iter  10:  -527.51574024973809   -5.21815e-04   6.41838e-05 DIIS
   @DF-RHF iter  11:  -527.51579145739879   -5.12077e-05   1.94233e-05 DIIS
   @DF-RHF iter  12:  -527.51579632221058   -4.86481e-06   8.14645e-06 DIIS
   @DF-RHF iter  13:  -527.51579724163503   -9.19424e-07   3.12838e-06 DIIS
   @DF-RHF iter  14:  -527.51579742420904   -1.82574e-07   1.06911e-06 DIIS
   @DF-RHF iter  15:  -527.51579744820992   -2.40009e-08   2.58648e-07 DIIS

  ==> Post-Iterations <==

    Orbital Energies (a.u.)
    -----------------------

    Doubly Occupied:                                                      

       1A    -26.343408     2A    -26.340202     3A    -26.335844  
       4A    -20.602387     5A    -11.500300     6A    -11.312701  
       7A    -11.301911     8A    -11.217830     9A     -1.739298  
      10A     -1.638391    11A     -1.634494    12A     -1.435197  
      13A     -1.076092    14A     -1.022300    15A     -0.928905  
      16A     -0.836643    17A     -0.829427    18A     -0.827233  
      19A     -0.756613    20A     -0.726178    21A     -0.713779  
      22A     -0.703877    23A     -0.673340    24A     -0.658957  
      25A     -0.655296    26A     -0.640308    27A     -0.630395  
      28A     -0.593348    29A     -0.557175    30A     -0.532542  
      31A     -0.489940    32A     -0.352714  

    Virtual:                                                              

      33A      0.169987    34A      0.250144    35A      0.268239  
      36A      0.277370    37A      0.292168    38A      0.330652  
      39A      0.354946    40A      0.413107    41A      0.435520  
      42A      0.450779    43A      0.481386    44A      0.496126  
      45A      0.525465    46A      0.693397    47A      0.697262  
      48A      0.717915    49A      0.746683    50A      0.775962  
      51A      0.783950    52A      0.793917    53A      0.848221  
      54A      0.871676    55A      0.891438    56A      0.919388  
      57A      0.994630    58A      1.074122    59A      1.095097  
      60A      1.123709    61A      1.137077    62A      1.183042  
      63A      1.207662    64A      1.223386    65A      1.276541  
      66A      1.303320    67A      1.359440    68A      1.372150  
      69A      1.386616    70A      1.417518    71A      1.444009  
      72A      1.510384    73A      1.597822    74A      1.598862  
      75A      1.631419    76A      1.644633    77A      1.671714  
      78A      1.677191    79A      1.683403    80A      1.706700  
      81A      1.779011    82A      1.851795    83A      1.872848  
      84A      1.931788    85A      1.942103    86A      1.988322  
      87A      2.007387    88A      2.021384    89A      2.112930  
      90A      2.137764    91A      2.145556    92A      2.156537  
      93A      2.222007    94A      2.274013    95A      2.281027  
      96A      2.316930    97A      2.320155    98A      2.335416  
      99A      2.383035   100A      2.400927   101A      2.414599  
     102A      2.432458   103A      2.480286   104A      2.505398  
     105A      2.541981   106A      2.631773   107A      2.674170  
     108A      2.705928   109A      2.756034   110A      2.792754  
     111A      2.866293   112A      2.923430   113A      3.015666  
     114A      3.091974   115A      3.130469   116A      3.182422  
     117A      3.207843   118A      3.320919   119A      3.405413  
     120A      3.425660   121A      3.440880   122A      3.453490  
     123A      4.361101   124A      4.563908   125A      4.616612  
     126A      4.724716   127A      4.897691   128A      4.960108  
     129A      5.133826   130A      5.847827  

    Final Occupation by Irrep:
              A 
    DOCC [    32 ]

  Energy converged.

  @DF-RHF Final Energy:  -527.51579744820992

   => Energetics <=

    Nuclear Repulsion Energy =            422.1826108105103685
    One-Electron Energy =               -1568.1827919368643052
    Two-Electron Energy =                 618.4843836781437858
    DFT Exchange-Correlation Energy =       0.0000000000000000
    Empirical Dispersion Energy =           0.0000000000000000
    PCM Polarization Energy =               0.0000000000000000
    EFP Energy =                            0.0000000000000000
    Total Energy =                       -527.5157974482101508

    Alert: EFP and PCM quantities not currently incorporated into SCF psivars.

Properties will be evaluated at   0.000000,   0.000000,   0.000000 Bohr
  ==> Properties <==


Properties computed using the SCF density matrix

  Nuclear Dipole Moment: (a.u.)
     X:    -8.2585      Y:     8.2852      Z:     0.8258

  Electronic Dipole Moment: (a.u.)
     X:     8.1051      Y:    -7.6724      Z:    -0.9221

  Dipole Moment: (a.u.)
     X:    -0.1534      Y:     0.6128      Z:    -0.0963     Total:     0.6390

  Dipole Moment: (Debye)
     X:    -0.3898      Y:     1.5577      Z:    -0.2447     Total:     1.6243


  Saving occupied orbitals to File 180.

*** tstop() called on cx1b.hpc.ic.ac.uk at Tue Jul 26 13:35:31 2016
Module time:
	user time   =      68.10 seconds =       1.14 minutes
	system time =       2.51 seconds =       0.04 minutes
	total time  =          6 seconds =       0.10 minutes
Total time:
	user time   =      68.10 seconds =       1.14 minutes
	system time =       2.51 seconds =       0.04 minutes
	total time  =          6 seconds =       0.10 minutes


Properties will be evaluated at   0.000000,   0.000000,   0.000000 Bohr

Properties computed using the  density matrix

  Nuclear Dipole Moment: (a.u.)
     X:    -8.2585      Y:     8.2852      Z:     0.8258

  Electronic Dipole Moment: (a.u.)
     X:     8.1051      Y:    -7.6724      Z:    -0.9221

  Dipole Moment: (a.u.)
     X:    -0.1534      Y:     0.6128      Z:    -0.0963     Total:     0.6390

  Dipole Moment: (Debye)
     X:    -0.3898      Y:     1.5577      Z:    -0.2447     Total:     1.6243

  Quadrupole Moment: (Debye Ang)
    XX:   -42.6688     YY:   -44.0510     ZZ:   -46.9422
    XY:     3.0319     XZ:     2.0573     YZ:    -1.2775

  Traceless Quadrupole Moment: (Debye Ang)
    XX:     1.8852     YY:     0.5030     ZZ:    -2.3882
    XY:     3.0319     XZ:     2.0573     YZ:    -1.2775

  Mulliken Charges: (a.u.)
   Center  Symbol    Alpha    Beta     Spin     Total
       1     H     0.40730  0.40730  0.00000  0.18539
       2     C     3.24609  3.24609  0.00000 -0.49217
       3     C     2.89152  2.89152  0.00000  0.21696
       4     H     0.40271  0.40271  0.00000  0.19459
       5     O     4.30817  4.30817  0.00000 -0.61633
       6     H     0.39636  0.39636  0.00000  0.20728
       7     C     3.06477  3.06477  0.00000 -0.12954
       8     C     2.45056  2.45056  0.00000  1.09889
       9     H     0.39149  0.39149  0.00000  0.21703
      10     H     0.40314  0.40314  0.00000  0.19373
      11     F     4.68023  4.68023  0.00000 -0.36046
      12     F     4.68103  4.68103  0.00000 -0.36207
      13     F     4.67664  4.67664  0.00000 -0.35328

   Total alpha = 32.00000, Total beta = 32.00000, Total charge =  0.00000


*** PSI4 exiting successfully. Buy a developer a beer!
