    -----------------------------------------------------------------------
          Psi4: An Open-Source Ab Initio Electronic Structure Package
                              Psi4 (no tag) Driver

                          Git: Rev {detached?}  

    J. M. Turney, A. C. Simmonett, R. M. Parrish, E. G. Hohenstein,
    F. A. Evangelista, J. T. Fermann, B. J. Mintz, L. A. Burns, J. J. Wilke,
    M. L. Abrams, N. J. Russ, M. L. Leininger, C. L. Janssen, E. T. Seidl,
    W. D. Allen, H. F. Schaefer, R. A. King, E. F. Valeev, C. D. Sherrill,
    and T. D. Crawford, WIREs Comput. Mol. Sci. 2, 556-565 (2012)
    (doi: 10.1002/wcms.93)

                         Additional Contributions by
    A. E. DePrince, M. Saitow, U. Bozkaya, A. Yu. Sokolov
    -----------------------------------------------------------------------


    Psi4 started on: Tue Jul  5 16:45:11 2016

    Process ID:  25377
    PSI4DATADIR: /export131/home/mjharvey/miniconda3/share
    Memory level set to 256.000 MB

  ==> Input File <==

--------------------------------------------------------------------------
set {
	reference rhf
	basis 6-31G*
}


set_num_threads( 1 )
memory 2 gb

molecule MOL {
0 1

H	 -2.127446	 3.523326	 0.705572
N	 -1.265624	 3.212699	 1.110937
C	 -1.460920	 1.975768	 1.853490
H	 -0.953284	 3.943396	 1.721965
C	 -0.435163	 0.928932	 1.431930
H	 -2.458596	 1.610775	 1.629255
H	 -1.414112	 2.113505	 2.936650
C	 -0.679275	 0.379305	 0.025956
H	 0.554019	 1.373218	 1.494890
H	 -0.450378	 0.107436	 2.147646
C	 -0.791153	 1.473151	 -1.037697
H	 -1.591837	 -0.214897	 0.024303
H	 0.126996	 -0.300826	 -0.244591
C	 -2.115055	 2.234023	 -0.975523
H	 0.033362	 2.173024	 -0.921214
H	 -0.676491	 1.028719	 -2.024099
H	 -2.243718	 2.718807	 -0.011807
H	 -2.163946	 3.002377	 -1.740928
H	 -2.958889	 1.565841	 -1.123406

	symmetry c1
}
set optking {
	frozen_dihedral = ("
		6 3 5 9,
		12 8 5 9,
		12 8 11 15
	")
}

ee = energy('scf')
oeprop('DIPOLE', 'QUADRUPOLE', 'MULLIKEN_CHARGES')
f=open( 'psi4out.xyz', 'w' )
f.write( "19  " )
f.write( str(ee) + "\n" )
f.write( MOL.save_string_xyz() )
f.close()
--------------------------------------------------------------------------

  Memory set to   2.000 GiB by Python script.

*** tstart() called on cx1-3-3-2.cx1.hpc.ic.ac.uk
*** at Tue Jul  5 16:45:11 2016


         ---------------------------------------------------------
                                   SCF
            by Justin Turney, Rob Parrish, and Andy Simmonett
                              RHF Reference
                        1 Threads,   2000 MiB Core
         ---------------------------------------------------------

  ==> Geometry <==

    Molecular point group: c1
    Full point group: C1

    Geometry (in Angstrom), charge = 0, multiplicity = 1:

       Center              X                  Y                   Z               Mass       
    ------------   -----------------  -----------------  -----------------  -----------------
           H         -0.979937739544     1.781703180467     0.294979342567     1.007825032070
           N         -0.118115739544     1.471076180467     0.700344342567    14.003074004780
           C         -0.313411739544     0.234145180467     1.442897342567    12.000000000000
           H          0.194224260456     2.201773180467     1.311372342567     1.007825032070
           C          0.712345260456    -0.812690819533     1.021337342567    12.000000000000
           H         -1.311087739544    -0.130847819533     1.218662342567     1.007825032070
           H         -0.266603739544     0.371882180467     2.526057342567     1.007825032070
           C          0.468233260456    -1.362317819533    -0.384636657433    12.000000000000
           H          1.701527260456    -0.368404819533     1.084297342567     1.007825032070
           H          0.697130260456    -1.634186819533     1.737053342567     1.007825032070
           C          0.356355260456    -0.268471819533    -1.448289657433    12.000000000000
           H         -0.444328739544    -1.956519819533    -0.386289657433     1.007825032070
           H          1.274504260456    -2.042448819533    -0.655183657433     1.007825032070
           C         -0.967546739544     0.492400180467    -1.386115657433    12.000000000000
           H          1.180870260456     0.431401180467    -1.331806657433     1.007825032070
           H          0.471017260456    -0.712903819533    -2.434691657433     1.007825032070
           H         -1.096209739544     0.977184180467    -0.422399657433     1.007825032070
           H         -1.016437739544     1.260754180467    -2.151520657433     1.007825032070
           H         -1.811380739544    -0.175781819533    -1.533998657433     1.007825032070

  Running in c1 symmetry.

  Rotational constants: A =      0.13888  B =      0.11392  C =      0.07350 [cm^-1]
  Rotational constants: A =   4163.45581  B =   3415.10421  C =   2203.51268 [MHz]
  Nuclear repulsion =  271.431353525574082

  Charge       = 0
  Multiplicity = 1
  Electrons    = 50
  Nalpha       = 25
  Nbeta        = 25

  ==> Algorithm <==

  SCF Algorithm Type is DF.
  DIIS enabled.
  MOM disabled.
  Fractional occupation disabled.
  Guess Type is CORE.
  Energy threshold   = 1.00e-06
  Density threshold  = 1.00e-06
  Integral threshold = 0.00e+00

  ==> Primary Basis <==

  Basis Set: 6-31G*
    Number of shells: 62
    Number of basis function: 116
    Number of Cartesian functions: 116
    Spherical Harmonics?: false
    Max angular momentum: 2

  ==> Pre-Iterations <==

   -------------------------------------------------------
    Irrep   Nso     Nmo     Nalpha   Nbeta   Ndocc  Nsocc
   -------------------------------------------------------
     A        116     116       0       0       0       0
   -------------------------------------------------------
    Total     116     116      25      25      25       0
   -------------------------------------------------------

 OEINTS: Overlap, kinetic, potential, dipole, and quadrupole integrals
         stored in file 35.

  ==> Integral Setup <==

  ==> DFJK: Density-Fitted J/K Matrices <==

    J tasked:                  Yes
    K tasked:                  Yes
    wK tasked:                  No
    OpenMP threads:              1
    Integrals threads:           1
    Memory (MB):              1430
    Algorithm:                Core
    Integral Cache:           NONE
    Schwarz Cutoff:          1E-12
    Fitting Condition:       1E-12

   => Auxiliary Basis Set <=

  Basis Set: 
    Number of shells: 261
    Number of basis function: 811
    Number of Cartesian functions: 811
    Spherical Harmonics?: false
    Max angular momentum: 3

  Minimum eigenvalue in the overlap matrix is 4.5678674383E-03.
  Using Symmetric Orthogonalization.
  SCF Guess: Core (One-Electron) Hamiltonian.

  ==> Iterations <==

                           Total Energy        Delta E     RMS |[F,P]|

   @DF-RHF iter   1:  -195.32076122976434   -1.95321e+02   7.15997e-02 
   @DF-RHF iter   2:  -167.79309500779891    2.75277e+01   6.52411e-02 DIIS
   @DF-RHF iter   3:  -213.65948803565880   -4.58664e+01   4.34546e-02 DIIS
   @DF-RHF iter   4:  -218.29334509132525   -4.63386e+00   5.46626e-02 DIIS
   @DF-RHF iter   5:  -250.99875773263898   -3.27054e+01   5.71719e-03 DIIS
   @DF-RHF iter   6:  -251.20756400471805   -2.08806e-01   2.69960e-03 DIIS
   @DF-RHF iter   7:  -251.24861186406156   -4.10479e-02   1.22358e-03 DIIS
   @DF-RHF iter   8:  -251.26111274548578   -1.25009e-02   4.18827e-04 DIIS
   @DF-RHF iter   9:  -251.26269401031072   -1.58126e-03   1.42682e-04 DIIS
   @DF-RHF iter  10:  -251.26289058517250   -1.96575e-04   3.37733e-05 DIIS
   @DF-RHF iter  11:  -251.26290288126552   -1.22961e-05   1.02854e-05 DIIS
   @DF-RHF iter  12:  -251.26290396753950   -1.08627e-06   3.80124e-06 DIIS
   @DF-RHF iter  13:  -251.26290415075357   -1.83214e-07   5.67321e-07 DIIS

  ==> Post-Iterations <==

    Orbital Energies (a.u.)
    -----------------------

    Doubly Occupied:                                                      

       1A    -15.534347     2A    -11.245353     3A    -11.206216  
       4A    -11.203818     5A    -11.196754     6A    -11.178302  
       7A     -1.204662     8A     -1.059487     9A     -0.998512  
      10A     -0.898014    11A     -0.830556    12A     -0.770425  
      13A     -0.712365    14A     -0.643614    15A     -0.607863  
      16A     -0.573798    17A     -0.565565    18A     -0.544178  
      19A     -0.518968    20A     -0.494975    21A     -0.468846  
      22A     -0.451302    23A     -0.443371    24A     -0.428004  
      25A     -0.379349  

    Virtual:                                                              

      26A      0.230558    27A      0.252500    28A      0.264796  
      29A      0.288731    30A      0.291362    31A      0.311025  
      32A      0.323898    33A      0.338422    34A      0.345437  
      35A      0.349997    36A      0.359334    37A      0.384053  
      38A      0.410187    39A      0.422916    40A      0.432245  
      41A      0.458061    42A      0.473720    43A      0.495265  
      44A      0.729220    45A      0.736469    46A      0.746300  
      47A      0.772039    48A      0.791549    49A      0.809509  
      50A      0.867395    51A      0.920636    52A      0.930760  
      53A      0.947475    54A      0.990813    55A      0.996677  
      56A      1.022161    57A      1.046469    58A      1.087273  
      59A      1.111379    60A      1.127381    61A      1.161519  
      62A      1.171758    63A      1.176325    64A      1.191102  
      65A      1.198134    66A      1.216589    67A      1.231928  
      68A      1.243522    69A      1.250990    70A      1.263497  
      71A      1.274991    72A      1.288046    73A      1.327067  
      74A      1.395673    75A      1.446496    76A      1.598136  
      77A      1.631867    78A      1.702874    79A      1.769140  
      80A      1.803329    81A      1.858171    82A      1.900168  
      83A      1.960059    84A      1.998193    85A      2.090218  
      86A      2.174044    87A      2.234375    88A      2.243061  
      89A      2.256392    90A      2.286515    91A      2.317132  
      92A      2.384097    93A      2.408624    94A      2.435315  
      95A      2.501730    96A      2.543668    97A      2.571793  
      98A      2.599115    99A      2.655097   100A      2.694731  
     101A      2.745900   102A      2.773186   103A      2.799923  
     104A      2.854101   105A      2.937443   106A      2.987259  
     107A      3.015041   108A      3.035896   109A      3.096202  
     110A      3.125758   111A      4.324607   112A      4.600430  
     113A      4.716235   114A      4.838256   115A      4.950489  
     116A      5.008135  

    Final Occupation by Irrep:
              A 
    DOCC [    25 ]

  Energy converged.

  @DF-RHF Final Energy:  -251.26290415075357

   => Energetics <=

    Nuclear Repulsion Energy =            271.4313535255740817
    One-Electron Energy =                -877.0710761458067282
    Two-Electron Energy =                 354.3768184694789056
    DFT Exchange-Correlation Energy =       0.0000000000000000
    Empirical Dispersion Energy =           0.0000000000000000
    PCM Polarization Energy =               0.0000000000000000
    EFP Energy =                            0.0000000000000000
    Total Energy =                       -251.2629041507537409

    Alert: EFP and PCM quantities not currently incorporated into SCF psivars.

Properties will be evaluated at   0.000000,   0.000000,   0.000000 Bohr
  ==> Properties <==


Properties computed using the SCF density matrix

  Nuclear Dipole Moment: (a.u.)
     X:    -1.3184      Y:    -0.0009      Z:    -0.6990

  Electronic Dipole Moment: (a.u.)
     X:     1.0675      Y:     0.2632      Z:     1.2758

  Dipole Moment: (a.u.)
     X:    -0.2509      Y:     0.2623      Z:     0.5768     Total:     0.6815

  Dipole Moment: (Debye)
     X:    -0.6378      Y:     0.6668      Z:     1.4661     Total:     1.7323


  Saving occupied orbitals to File 180.

*** tstop() called on cx1-3-3-2.cx1.hpc.ic.ac.uk at Tue Jul  5 16:45:20 2016
Module time:
	user time   =       8.44 seconds =       0.14 minutes
	system time =       0.05 seconds =       0.00 minutes
	total time  =          9 seconds =       0.15 minutes
Total time:
	user time   =       8.44 seconds =       0.14 minutes
	system time =       0.05 seconds =       0.00 minutes
	total time  =          9 seconds =       0.15 minutes


Properties will be evaluated at   0.000000,   0.000000,   0.000000 Bohr

Properties computed using the  density matrix

  Nuclear Dipole Moment: (a.u.)
     X:    -1.3184      Y:    -0.0009      Z:    -0.6990

  Electronic Dipole Moment: (a.u.)
     X:     1.0675      Y:     0.2632      Z:     1.2758

  Dipole Moment: (a.u.)
     X:    -0.2509      Y:     0.2623      Z:     0.5768     Total:     0.6815

  Dipole Moment: (Debye)
     X:    -0.6378      Y:     0.6668      Z:     1.4661     Total:     1.7323

  Quadrupole Moment: (Debye Ang)
    XX:   -40.9951     YY:   -38.9674     ZZ:   -40.4722
    XY:    -1.2508     XZ:    -0.5631     YZ:     1.8300

  Traceless Quadrupole Moment: (Debye Ang)
    XX:    -0.8502     YY:     1.1775     ZZ:    -0.3273
    XY:    -1.2508     XZ:    -0.5631     YZ:     1.8300

  Mulliken Charges: (a.u.)
   Center  Symbol    Alpha    Beta     Spin     Total
       1     H     0.31180  0.31180  0.00000  0.37640
       2     N     3.92795  3.92795  0.00000 -0.85589
       3     C     3.08604  3.08604  0.00000 -0.17208
       4     H     0.33219  0.33219  0.00000  0.33562
       5     C     3.14013  3.14013  0.00000 -0.28026
       6     H     0.41624  0.41624  0.00000  0.16752
       7     H     0.41840  0.41840  0.00000  0.16320
       8     C     3.15726  3.15726  0.00000 -0.31452
       9     H     0.42031  0.42031  0.00000  0.15938
      10     H     0.42622  0.42622  0.00000  0.14755
      11     C     3.14200  3.14200  0.00000 -0.28399
      12     H     0.42651  0.42651  0.00000  0.14698
      13     H     0.42185  0.42185  0.00000  0.15630
      14     C     3.20921  3.20921  0.00000 -0.41843
      15     H     0.41529  0.41529  0.00000  0.16942
      16     H     0.42625  0.42625  0.00000  0.14750
      17     H     0.46195  0.46195  0.00000  0.07610
      18     H     0.42611  0.42611  0.00000  0.14777
      19     H     0.43429  0.43429  0.00000  0.13143

   Total alpha = 25.00000, Total beta = 25.00000, Total charge = -0.00000


*** PSI4 exiting successfully. Buy a developer a beer!
