    -----------------------------------------------------------------------
          Psi4: An Open-Source Ab Initio Electronic Structure Package
                              Psi4 (no tag) Driver

                          Git: Rev {detached?}  

    J. M. Turney, A. C. Simmonett, R. M. Parrish, E. G. Hohenstein,
    F. A. Evangelista, J. T. Fermann, B. J. Mintz, L. A. Burns, J. J. Wilke,
    M. L. Abrams, N. J. Russ, M. L. Leininger, C. L. Janssen, E. T. Seidl,
    W. D. Allen, H. F. Schaefer, R. A. King, E. F. Valeev, C. D. Sherrill,
    and T. D. Crawford, WIREs Comput. Mol. Sci. 2, 556-565 (2012)
    (doi: 10.1002/wcms.93)

                         Additional Contributions by
    A. E. DePrince, M. Saitow, U. Bozkaya, A. Yu. Sokolov
    -----------------------------------------------------------------------


    Psi4 started on: Tue Jul  5 16:43:18 2016

    Process ID:  18689
    PSI4DATADIR: /export131/home/mjharvey/miniconda3/share
    Memory level set to 256.000 MB

  ==> Input File <==

--------------------------------------------------------------------------
set {
	reference rhf
	basis 6-31G*
}


set_num_threads( 1 )
memory 2 gb

molecule MOL {
0 1

O	 -1.381589	 -0.194151	 -0.991025
C	 -1.083277	 0.139568	 0.115197
C	 0.323299	 -0.082943	 0.642902
C	 -2.087705	 0.773335	 1.051835
C	 1.355627	 -0.005344	 -0.493127
H	 0.396251	 -1.044647	 1.143147
H	 0.528637	 0.693580	 1.371677
C	 1.155333	 1.223865	 -1.377534
H	 2.360126	 0.010252	 -0.075980
H	 1.280057	 -0.907677	 -1.090809
H	 1.891536	 1.252673	 -2.174319
H	 1.250670	 2.141594	 -0.804378
H	 0.170717	 1.219102	 -1.835306
H	 -2.102119	 0.257492	 2.007537
H	 -3.072997	 0.751262	 0.607484
H	 -1.803716	 1.803848	 1.248297

	symmetry c1
}
set optking {
	frozen_dihedral = ("
		9 5 3 2
	")
}

ee = energy('scf')
oeprop('DIPOLE', 'QUADRUPOLE', 'MULLIKEN_CHARGES')
f=open( 'psi4out.xyz', 'w' )
f.write( "16  " )
f.write( str(ee) + "\n" )
f.write( MOL.save_string_xyz() )
f.close()
--------------------------------------------------------------------------

  Memory set to   2.000 GiB by Python script.

*** tstart() called on cx1-3-15-3.cx1.hpc.ic.ac.uk
*** at Tue Jul  5 16:43:19 2016


         ---------------------------------------------------------
                                   SCF
            by Justin Turney, Rob Parrish, and Andy Simmonett
                              RHF Reference
                        1 Threads,   2000 MiB Core
         ---------------------------------------------------------

  ==> Geometry <==

    Molecular point group: c1
    Full point group: C1

    Geometry (in Angstrom), charge = 0, multiplicity = 1:

       Center              X                  Y                   Z               Mass       
    ------------   -----------------  -----------------  -----------------  -----------------
           O         -1.088432867768    -0.515995343963    -0.803049746672    15.994914619560
           C         -0.790120867768    -0.182276343963     0.303172253328    12.000000000000
           C          0.616455132232    -0.404787343963     0.830877253328    12.000000000000
           C         -1.794548867768     0.451490656037     1.239810253328    12.000000000000
           C          1.648783132232    -0.327188343963    -0.305151746672    12.000000000000
           H          0.689407132232    -1.366491343963     1.331122253328     1.007825032070
           H          0.821793132232     0.371735656037     1.559652253328     1.007825032070
           C          1.448489132232     0.902020656037    -1.189558746672    12.000000000000
           H          2.653282132232    -0.311592343963     0.111995253328     1.007825032070
           H          1.573213132232    -1.229521343963    -0.902833746672     1.007825032070
           H          2.184692132232     0.930828656037    -1.986343746672     1.007825032070
           H          1.543826132232     1.819749656037    -0.616402746672     1.007825032070
           H          0.463873132232     0.897257656037    -1.647330746672     1.007825032070
           H         -1.808962867768    -0.064352343963     2.195512253328     1.007825032070
           H         -2.779840867768     0.429417656037     0.795459253328     1.007825032070
           H         -1.510559867768     1.482003656037     1.436272253328     1.007825032070

  Running in c1 symmetry.

  Rotational constants: A =      0.20155  B =      0.07911  C =      0.07155 [cm^-1]
  Rotational constants: A =   6042.28032  B =   2371.55607  C =   2144.88010 [MHz]
  Nuclear repulsion =  244.743576210710330

  Charge       = 0
  Multiplicity = 1
  Electrons    = 48
  Nalpha       = 24
  Nbeta        = 24

  ==> Algorithm <==

  SCF Algorithm Type is DF.
  DIIS enabled.
  MOM disabled.
  Fractional occupation disabled.
  Guess Type is CORE.
  Energy threshold   = 1.00e-06
  Density threshold  = 1.00e-06
  Integral threshold = 0.00e+00

  ==> Primary Basis <==

  Basis Set: 6-31G*
    Number of shells: 56
    Number of basis function: 110
    Number of Cartesian functions: 110
    Spherical Harmonics?: false
    Max angular momentum: 2

  ==> Pre-Iterations <==

   -------------------------------------------------------
    Irrep   Nso     Nmo     Nalpha   Nbeta   Ndocc  Nsocc
   -------------------------------------------------------
     A        110     110       0       0       0       0
   -------------------------------------------------------
    Total     110     110      24      24      24       0
   -------------------------------------------------------

 OEINTS: Overlap, kinetic, potential, dipole, and quadrupole integrals
         stored in file 35.

  ==> Integral Setup <==

  ==> DFJK: Density-Fitted J/K Matrices <==

    J tasked:                  Yes
    K tasked:                  Yes
    wK tasked:                  No
    OpenMP threads:              1
    Integrals threads:           1
    Memory (MB):              1430
    Algorithm:                Core
    Integral Cache:           NONE
    Schwarz Cutoff:          1E-12
    Fitting Condition:       1E-12

   => Auxiliary Basis Set <=

  Basis Set: 
    Number of shells: 234
    Number of basis function: 736
    Number of Cartesian functions: 736
    Spherical Harmonics?: false
    Max angular momentum: 3

  Minimum eigenvalue in the overlap matrix is 3.6530830593E-03.
  Using Symmetric Orthogonalization.
  SCF Guess: Core (One-Electron) Hamiltonian.

  ==> Iterations <==

                           Total Energy        Delta E     RMS |[F,P]|

   @DF-RHF iter   1:  -207.91771239430727   -2.07918e+02   7.75370e-02 
   @DF-RHF iter   2:  -196.18431411452923    1.17334e+01   6.03414e-02 DIIS
   @DF-RHF iter   3:  -239.12683649219161   -4.29425e+01   4.93336e-02 DIIS
   @DF-RHF iter   4:  -268.31750731235934   -2.91907e+01   1.50567e-02 DIIS
   @DF-RHF iter   5:  -269.38779097264467   -1.07028e+00   1.06184e-02 DIIS
   @DF-RHF iter   6:  -269.98713653765287   -5.99346e-01   2.41650e-03 DIIS
   @DF-RHF iter   7:  -270.01879686501991   -3.16603e-02   9.99378e-04 DIIS
   @DF-RHF iter   8:  -270.02532992996692   -6.53306e-03   2.81652e-04 DIIS
   @DF-RHF iter   9:  -270.02605785535013   -7.27925e-04   8.76466e-05 DIIS
   @DF-RHF iter  10:  -270.02612925269352   -7.13973e-05   2.11334e-05 DIIS
   @DF-RHF iter  11:  -270.02613477793182   -5.52524e-06   7.18928e-06 DIIS
   @DF-RHF iter  12:  -270.02613575708131   -9.79149e-07   3.13680e-06 DIIS
   @DF-RHF iter  13:  -270.02613598339224   -2.26311e-07   1.22984e-06 DIIS
   @DF-RHF iter  14:  -270.02613602160454   -3.82123e-08   4.66236e-07 DIIS

  ==> Post-Iterations <==

    Orbital Energies (a.u.)
    -----------------------

    Doubly Occupied:                                                      

       1A    -20.550181     2A    -11.327426     3A    -11.231398  
       4A    -11.230006     5A    -11.220976     6A    -11.202611  
       7A     -1.398040     8A     -1.075102     9A     -1.014427  
      10A     -0.942811    11A     -0.825321    12A     -0.727069  
      13A     -0.664606    14A     -0.640006    15A     -0.623641  
      16A     -0.599253    17A     -0.580172    18A     -0.548850  
      19A     -0.545470    20A     -0.503209    21A     -0.483044  
      22A     -0.477672    23A     -0.471945    24A     -0.400769  

    Virtual:                                                              

      25A      0.163807    26A      0.222860    27A      0.264029  
      28A      0.290716    29A      0.296059    30A      0.308187  
      31A      0.313474    32A      0.327469    33A      0.331329  
      34A      0.343416    35A      0.366011    36A      0.383942  
      37A      0.420251    38A      0.441637    39A      0.481827  
      40A      0.531301    41A      0.708239    42A      0.715880  
      43A      0.736085    44A      0.769960    45A      0.781288  
      46A      0.819503    47A      0.834915    48A      0.880654  
      49A      0.904232    50A      0.933388    51A      0.950140  
      52A      0.990067    53A      1.012187    54A      1.072067  
      55A      1.081505    56A      1.114107    57A      1.136259  
      58A      1.142594    59A      1.161939    60A      1.179462  
      61A      1.193607    62A      1.201875    63A      1.215137  
      64A      1.239592    65A      1.256157    66A      1.259108  
      67A      1.273812    68A      1.363915    69A      1.384176  
      70A      1.438203    71A      1.522266    72A      1.660969  
      73A      1.703694    74A      1.742597    75A      1.808647  
      76A      1.881657    77A      1.924974    78A      1.991143  
      79A      2.074260    80A      2.102651    81A      2.125978  
      82A      2.136660    83A      2.203450    84A      2.243031  
      85A      2.252982    86A      2.301306    87A      2.340044  
      88A      2.392055    89A      2.468147    90A      2.489264  
      91A      2.520379    92A      2.604979    93A      2.656201  
      94A      2.691276    95A      2.709239    96A      2.750187  
      97A      2.764682    98A      2.841434    99A      2.887769  
     100A      2.967262   101A      3.045330   102A      3.160286  
     103A      3.380055   104A      3.397260   105A      4.451358  
     106A      4.527998   107A      4.644224   108A      4.757275  
     109A      4.869885   110A      4.972253  

    Final Occupation by Irrep:
              A 
    DOCC [    24 ]

  Energy converged.

  @DF-RHF Final Energy:  -270.02613602160454

   => Energetics <=

    Nuclear Repulsion Energy =            244.7435762107103301
    One-Electron Energy =                -850.9714182644117955
    Two-Electron Energy =                 336.2017060320974338
    DFT Exchange-Correlation Energy =       0.0000000000000000
    Empirical Dispersion Energy =           0.0000000000000000
    PCM Polarization Energy =               0.0000000000000000
    EFP Energy =                            0.0000000000000000
    Total Energy =                       -270.0261360216040316

    Alert: EFP and PCM quantities not currently incorporated into SCF psivars.

Properties will be evaluated at   0.000000,   0.000000,   0.000000 Bohr
  ==> Properties <==


Properties computed using the SCF density matrix

  Nuclear Dipole Moment: (a.u.)
     X:     3.5860      Y:     2.7715      Z:     2.1309

  Electronic Dipole Moment: (a.u.)
     X:    -3.3073      Y:    -2.4995      Z:    -1.0859

  Dipole Moment: (a.u.)
     X:     0.2786      Y:     0.2720      Z:     1.0449     Total:     1.1151

  Dipole Moment: (Debye)
     X:     0.7082      Y:     0.6913      Z:     2.6560     Total:     2.8344


  Saving occupied orbitals to File 180.

*** tstop() called on cx1-3-15-3.cx1.hpc.ic.ac.uk at Tue Jul  5 16:43:26 2016
Module time:
	user time   =       7.05 seconds =       0.12 minutes
	system time =       0.04 seconds =       0.00 minutes
	total time  =          7 seconds =       0.12 minutes
Total time:
	user time   =       7.05 seconds =       0.12 minutes
	system time =       0.04 seconds =       0.00 minutes
	total time  =          7 seconds =       0.12 minutes


Properties will be evaluated at   0.000000,   0.000000,   0.000000 Bohr

Properties computed using the  density matrix

  Nuclear Dipole Moment: (a.u.)
     X:     3.5860      Y:     2.7715      Z:     2.1309

  Electronic Dipole Moment: (a.u.)
     X:    -3.3073      Y:    -2.4995      Z:    -1.0859

  Dipole Moment: (a.u.)
     X:     0.2786      Y:     0.2720      Z:     1.0449     Total:     1.1151

  Dipole Moment: (Debye)
     X:     0.7082      Y:     0.6913      Z:     2.6560     Total:     2.8344

  Quadrupole Moment: (Debye Ang)
    XX:   -38.7156     YY:   -38.1085     ZZ:   -38.9919
    XY:    -1.6319     XZ:    -2.9835     YZ:    -1.0605

  Traceless Quadrupole Moment: (Debye Ang)
    XX:    -0.1103     YY:     0.4969     ZZ:    -0.3866
    XY:    -1.6319     XZ:    -2.9835     YZ:    -1.0605

  Mulliken Charges: (a.u.)
   Center  Symbol    Alpha    Beta     Spin     Total
       1     O     4.26288  4.26288  0.00000 -0.52577
       2     C     2.73626  2.73626  0.00000  0.52748
       3     C     3.20724  3.20724  0.00000 -0.41447
       4     C     3.28823  3.28823  0.00000 -0.57645
       5     C     3.14828  3.14828  0.00000 -0.29657
       6     H     0.40049  0.40049  0.00000  0.19902
       7     H     0.41581  0.41581  0.00000  0.16837
       8     C     3.25514  3.25514  0.00000 -0.51028
       9     H     0.41969  0.41969  0.00000  0.16062
      10     H     0.41004  0.41004  0.00000  0.17992
      11     H     0.41824  0.41824  0.00000  0.16352
      12     H     0.42809  0.42809  0.00000  0.14382
      13     H     0.39734  0.39734  0.00000  0.20533
      14     H     0.40868  0.40868  0.00000  0.18263
      15     H     0.39676  0.39676  0.00000  0.20647
      16     H     0.40682  0.40682  0.00000  0.18636

   Total alpha = 24.00000, Total beta = 24.00000, Total charge = -0.00000


*** PSI4 exiting successfully. Buy a developer a beer!
