    -----------------------------------------------------------------------
          Psi4: An Open-Source Ab Initio Electronic Structure Package
                              Psi4 (no tag) Driver

                          Git: Rev {detached?}  

    J. M. Turney, A. C. Simmonett, R. M. Parrish, E. G. Hohenstein,
    F. A. Evangelista, J. T. Fermann, B. J. Mintz, L. A. Burns, J. J. Wilke,
    M. L. Abrams, N. J. Russ, M. L. Leininger, C. L. Janssen, E. T. Seidl,
    W. D. Allen, H. F. Schaefer, R. A. King, E. F. Valeev, C. D. Sherrill,
    and T. D. Crawford, WIREs Comput. Mol. Sci. 2, 556-565 (2012)
    (doi: 10.1002/wcms.93)

                         Additional Contributions by
    A. E. DePrince, M. Saitow, U. Bozkaya, A. Yu. Sokolov
    -----------------------------------------------------------------------


    Psi4 started on: Tue Jul  5 17:30:51 2016

    Process ID:  29049
    PSI4DATADIR: /export131/home/mjharvey/miniconda3/share
    Memory level set to 256.000 MB

  ==> Input File <==

--------------------------------------------------------------------------
set {
	reference rhf
	basis 6-31G*
}


set_num_threads( 1 )
memory 2 gb

molecule MOL {
0 1

H	 -4.380018	 0.191805	 -1.132117
O	 -3.452007	 0.283848	 -0.965577
C	 -3.181085	 -0.079926	 0.364119
C	 -1.765924	 0.277073	 0.805136
H	 -3.327791	 -1.152017	 0.410903
H	 -3.905698	 0.375695	 1.036898
C	 -0.677594	 -0.417312	 -0.014550
H	 -1.637766	 1.358238	 0.744969
H	 -1.659588	 0.017670	 1.857098
C	 -0.636515	 -1.931365	 0.202556
H	 0.286690	 0.014981	 0.234427
H	 -0.841928	 -0.208639	 -1.070411
C	 -2.019340	 -2.581843	 0.108972
H	 0.033343	 -2.375569	 -0.529832
H	 -0.205609	 -2.145527	 1.179827
C	 -2.989335	 -2.191157	 1.229968
H	 -1.906995	 -3.664819	 0.093554
H	 -2.467408	 -2.310741	 -0.844734
C	 -4.440244	 -2.613419	 0.991300
H	 -2.956848	 -1.111227	 1.352388
H	 -2.640555	 -2.612933	 2.170532
H	 -4.812308	 -2.216149	 0.050617
H	 -5.084614	 -2.243392	 1.782947
H	 -4.549920	 -3.692415	 0.961242

	symmetry c1
}
set optking {
	frozen_dihedral = ("
		20 16 13 17,
		17 13 10 7,
		13 10 7 11,
		11 7 4 3,
		7 4 3 2
	")
}

ee = energy('scf')
oeprop('DIPOLE', 'QUADRUPOLE', 'MULLIKEN_CHARGES')
f=open( 'psi4out.xyz', 'w' )
f.write( "24  " )
f.write( str(ee) + "\n" )
f.write( MOL.save_string_xyz() )
f.close()
--------------------------------------------------------------------------

  Memory set to   2.000 GiB by Python script.

*** tstart() called on cx1-1-3-2.cx1.hpc.ic.ac.uk
*** at Tue Jul  5 17:30:52 2016


         ---------------------------------------------------------
                                   SCF
            by Justin Turney, Rob Parrish, and Andy Simmonett
                              RHF Reference
                        1 Threads,   2000 MiB Core
         ---------------------------------------------------------

  ==> Geometry <==

    Molecular point group: c1
    Full point group: C1

    Geometry (in Angstrom), charge = 0, multiplicity = 1:

       Center              X                  Y                   Z               Mass       
    ------------   -----------------  -----------------  -----------------  -----------------
           H         -1.933366433061     1.327359272426    -1.452207389250     1.007825032070
           O         -1.005355433061     1.419402272426    -1.285667389250    15.994914619560
           C         -0.734433433061     1.055628272426     0.044028610750    12.000000000000
           C          0.680727566939     1.412627272426     0.485045610750    12.000000000000
           H         -0.881139433061    -0.016462727574     0.090812610750     1.007825032070
           H         -1.459046433061     1.511249272426     0.716807610750     1.007825032070
           C          1.769057566939     0.718242272426    -0.334640389250    12.000000000000
           H          0.808885566939     2.493792272426     0.424878610750     1.007825032070
           H          0.787063566939     1.153224272426     1.537007610750     1.007825032070
           C          1.810136566939    -0.795810727574    -0.117534389250    12.000000000000
           H          2.733341566939     1.150535272426    -0.085663389250     1.007825032070
           H          1.604723566939     0.926915272426    -1.390501389250     1.007825032070
           C          0.427311566939    -1.446288727574    -0.211118389250    12.000000000000
           H          2.479994566939    -1.240014727574    -0.849922389250     1.007825032070
           H          2.241042566939    -1.009972727574     0.859736610750     1.007825032070
           C         -0.542683433061    -1.055602727574     0.909877610750    12.000000000000
           H          0.539656566939    -2.529264727574    -0.226536389250     1.007825032070
           H         -0.020756433061    -1.175186727574    -1.164824389250     1.007825032070
           C         -1.993592433061    -1.477864727574     0.671209610750    12.000000000000
           H         -0.510196433061     0.024327272426     1.032297610750     1.007825032070
           H         -0.193903433061    -1.477378727574     1.850441610750     1.007825032070
           H         -2.365656433061    -1.080594727574    -0.269473389250     1.007825032070
           H         -2.637962433061    -1.107837727574     1.462856610750     1.007825032070
           H         -2.103268433061    -2.556860727574     0.641151610750     1.007825032070

  Running in c1 symmetry.

  Rotational constants: A =      0.07401  B =      0.06156  C =      0.04169 [cm^-1]
  Rotational constants: A =   2218.73254  B =   1845.53517  C =   1249.85044 [MHz]
  Nuclear repulsion =  436.188427379781956

  Charge       = 0
  Multiplicity = 1
  Electrons    = 66
  Nalpha       = 33
  Nbeta        = 33

  ==> Algorithm <==

  SCF Algorithm Type is DF.
  DIIS enabled.
  MOM disabled.
  Fractional occupation disabled.
  Guess Type is CORE.
  Energy threshold   = 1.00e-06
  Density threshold  = 1.00e-06
  Integral threshold = 0.00e+00

  ==> Primary Basis <==

  Basis Set: 6-31G*
    Number of shells: 80
    Number of basis function: 152
    Number of Cartesian functions: 152
    Spherical Harmonics?: false
    Max angular momentum: 2

  ==> Pre-Iterations <==

   -------------------------------------------------------
    Irrep   Nso     Nmo     Nalpha   Nbeta   Ndocc  Nsocc
   -------------------------------------------------------
     A        152     152       0       0       0       0
   -------------------------------------------------------
    Total     152     152      33      33      33       0
   -------------------------------------------------------

 OEINTS: Overlap, kinetic, potential, dipole, and quadrupole integrals
         stored in file 35.

  ==> Integral Setup <==

  ==> DFJK: Density-Fitted J/K Matrices <==

    J tasked:                  Yes
    K tasked:                  Yes
    wK tasked:                  No
    OpenMP threads:              1
    Integrals threads:           1
    Memory (MB):              1430
    Algorithm:                Core
    Integral Cache:           NONE
    Schwarz Cutoff:          1E-12
    Fitting Condition:       1E-12

   => Auxiliary Basis Set <=

  Basis Set: 
    Number of shells: 336
    Number of basis function: 1048
    Number of Cartesian functions: 1048
    Spherical Harmonics?: false
    Max angular momentum: 3

  Minimum eigenvalue in the overlap matrix is 2.2642566097E-03.
  Using Symmetric Orthogonalization.
  SCF Guess: Core (One-Electron) Hamiltonian.

  ==> Iterations <==

                           Total Energy        Delta E     RMS |[F,P]|

   @DF-RHF iter   1:  -268.94775558201582   -2.68948e+02   6.44783e-02 
   @DF-RHF iter   2:  -200.33426145801650    6.86135e+01   6.23694e-02 DIIS
   @DF-RHF iter   3:  -295.55921646134459   -9.52250e+01   4.40127e-02 DIIS
   @DF-RHF iter   4:  -286.39523381871356    9.16398e+00   5.93463e-02 DIIS
   @DF-RHF iter   5:  -348.47105239439509   -6.20758e+01   6.55044e-03 DIIS
   @DF-RHF iter   6:  -348.94793403991548   -4.76882e-01   2.52881e-03 DIIS
   @DF-RHF iter   7:  -349.01900993030392   -7.10759e-02   8.22246e-04 DIIS
   @DF-RHF iter   8:  -349.02805793922187   -9.04801e-03   2.20826e-04 DIIS
   @DF-RHF iter   9:  -349.02905297116376   -9.95032e-04   7.14375e-05 DIIS
   @DF-RHF iter  10:  -349.02913528519082   -8.23140e-05   2.79143e-05 DIIS
   @DF-RHF iter  11:  -349.02915287544624   -1.75903e-05   8.49203e-06 DIIS
   @DF-RHF iter  12:  -349.02915450087119   -1.62542e-06   2.04632e-06 DIIS
   @DF-RHF iter  13:  -349.02915461807390   -1.17203e-07   4.32303e-07 DIIS

  ==> Post-Iterations <==

    Orbital Energies (a.u.)
    -----------------------

    Doubly Occupied:                                                      

       1A    -20.535442     2A    -11.234998     3A    -11.218075  
       4A    -11.216324     5A    -11.214463     6A    -11.212733  
       7A    -11.209044     8A    -11.198494     9A     -1.347215  
      10A     -1.140681    11A     -1.047470    12A     -1.014235  
      13A     -0.933330    14A     -0.846312    15A     -0.828285  
      16A     -0.769824    17A     -0.718479    18A     -0.673624  
      19A     -0.618645    20A     -0.610974    21A     -0.580909  
      22A     -0.566460    23A     -0.563060    24A     -0.558992  
      25A     -0.527371    26A     -0.523462    27A     -0.491764  
      28A     -0.477436    29A     -0.472966    30A     -0.453773  
      31A     -0.439785    32A     -0.438857    33A     -0.341521  

    Virtual:                                                              

      34A      0.210123    35A      0.243436    36A      0.257266  
      37A      0.264771    38A      0.277713    39A      0.303496  
      40A      0.311504    41A      0.321084    42A      0.325902  
      43A      0.326268    44A      0.338421    45A      0.346328  
      46A      0.350421    47A      0.361034    48A      0.365299  
      49A      0.384899    50A      0.422047    51A      0.432961  
      52A      0.436494    53A      0.464112    54A      0.477383  
      55A      0.547219    56A      0.589226    57A      0.677595  
      58A      0.709119    59A      0.730477    60A      0.756710  
      61A      0.765912    62A      0.782926    63A      0.794224  
      64A      0.879222    65A      0.885656    66A      0.910233  
      67A      0.928021    68A      0.952236    69A      0.972984  
      70A      0.996535    71A      1.011442    72A      1.057313  
      73A      1.074671    74A      1.085818    75A      1.107033  
      76A      1.126770    77A      1.146636    78A      1.151855  
      79A      1.163433    80A      1.164656    81A      1.174942  
      82A      1.181730    83A      1.199144    84A      1.209686  
      85A      1.214084    86A      1.220065    87A      1.236932  
      88A      1.245720    89A      1.258177    90A      1.261597  
      91A      1.291942    92A      1.318034    93A      1.355250  
      94A      1.361075    95A      1.416034    96A      1.461984  
      97A      1.536092    98A      1.563003    99A      1.626881  
     100A      1.738503   101A      1.768966   102A      1.787521  
     103A      1.813843   104A      1.836282   105A      1.865561  
     106A      1.894623   107A      1.958077   108A      2.014467  
     109A      2.039259   110A      2.070530   111A      2.105730  
     112A      2.171510   113A      2.206519   114A      2.227652  
     115A      2.248709   116A      2.271938   117A      2.286978  
     118A      2.307758   119A      2.345533   120A      2.358978  
     121A      2.378345   122A      2.438286   123A      2.478532  
     124A      2.516140   125A      2.570676   126A      2.623284  
     127A      2.628334   128A      2.646702   129A      2.665249  
     130A      2.703226   131A      2.714598   132A      2.738123  
     133A      2.775979   134A      2.794167   135A      2.820783  
     136A      2.890675   137A      2.941579   138A      2.982941  
     139A      3.001569   140A      3.034506   141A      3.080274  
     142A      3.127502   143A      3.142354   144A      3.319151  
     145A      4.290396   146A      4.583126   147A      4.679514  
     148A      4.763409   149A      4.841799   150A      4.934474  
     151A      5.039786   152A      5.109331  

    Final Occupation by Irrep:
              A 
    DOCC [    33 ]

  Energy converged.

  @DF-RHF Final Energy:  -349.02915461807390

   => Energetics <=

    Nuclear Repulsion Energy =            436.1884273797819560
    One-Electron Energy =               -1338.3851304545253242
    Two-Electron Energy =                 553.1675484566691239
    DFT Exchange-Correlation Energy =       0.0000000000000000
    Empirical Dispersion Energy =           0.0000000000000000
    PCM Polarization Energy =               0.0000000000000000
    EFP Energy =                            0.0000000000000000
    Total Energy =                       -349.0291546180742444

    Alert: EFP and PCM quantities not currently incorporated into SCF psivars.

Properties will be evaluated at   0.000000,   0.000000,   0.000000 Bohr
  ==> Properties <==


Properties computed using the SCF density matrix

  Nuclear Dipole Moment: (a.u.)
     X:    -0.8585      Y:    -3.3739      Z:     2.9720

  Electronic Dipole Moment: (a.u.)
     X:     0.4747      Y:     3.1240      Z:    -2.5605

  Dipole Moment: (a.u.)
     X:    -0.3838      Y:    -0.2499      Z:     0.4115     Total:     0.6157

  Dipole Moment: (Debye)
     X:    -0.9755      Y:    -0.6351      Z:     1.0460     Total:     1.5650


  Saving occupied orbitals to File 180.

*** tstop() called on cx1-1-3-2.cx1.hpc.ic.ac.uk at Tue Jul  5 17:31:13 2016
Module time:
	user time   =      20.94 seconds =       0.35 minutes
	system time =       0.19 seconds =       0.00 minutes
	total time  =         21 seconds =       0.35 minutes
Total time:
	user time   =      20.94 seconds =       0.35 minutes
	system time =       0.19 seconds =       0.00 minutes
	total time  =         21 seconds =       0.35 minutes


Properties will be evaluated at   0.000000,   0.000000,   0.000000 Bohr

Properties computed using the  density matrix

  Nuclear Dipole Moment: (a.u.)
     X:    -0.8585      Y:    -3.3739      Z:     2.9720

  Electronic Dipole Moment: (a.u.)
     X:     0.4747      Y:     3.1240      Z:    -2.5605

  Dipole Moment: (a.u.)
     X:    -0.3838      Y:    -0.2499      Z:     0.4115     Total:     0.6157

  Dipole Moment: (Debye)
     X:    -0.9755      Y:    -0.6351      Z:     1.0460     Total:     1.5650

  Quadrupole Moment: (Debye Ang)
    XX:   -49.0074     YY:   -55.3218     ZZ:   -55.7332
    XY:    -0.6155     XZ:     0.8685     YZ:     2.9166

  Traceless Quadrupole Moment: (Debye Ang)
    XX:     4.3467     YY:    -1.9677     ZZ:    -2.3791
    XY:    -0.6155     XZ:     0.8685     YZ:     2.9166

  Mulliken Charges: (a.u.)
   Center  Symbol    Alpha    Beta     Spin     Total
       1     H     0.28396  0.28396  0.00000  0.43209
       2     O     4.38556  4.38556  0.00000 -0.77112
       3     C     3.03554  3.03554  0.00000 -0.07108
       4     C     3.19366  3.19366  0.00000 -0.38733
       5     H     0.38729  0.38729  0.00000  0.22542
       6     H     0.42442  0.42442  0.00000  0.15117
       7     C     3.15328  3.15328  0.00000 -0.30655
       8     H     0.40650  0.40650  0.00000  0.18700
       9     H     0.40817  0.40817  0.00000  0.18366
      10     C     3.15034  3.15034  0.00000 -0.30068
      11     H     0.42006  0.42006  0.00000  0.15989
      12     H     0.40625  0.40625  0.00000  0.18749
      13     C     3.17603  3.17603  0.00000 -0.35206
      14     H     0.41811  0.41811  0.00000  0.16379
      15     H     0.42397  0.42397  0.00000  0.15205
      16     C     3.21707  3.21707  0.00000 -0.43414
      17     H     0.41362  0.41362  0.00000  0.17276
      18     H     0.40651  0.40651  0.00000  0.18697
      19     C     3.24805  3.24805  0.00000 -0.49611
      20     H     0.37596  0.37596  0.00000  0.24809
      21     H     0.42214  0.42214  0.00000  0.15571
      22     H     0.41742  0.41742  0.00000  0.16516
      23     H     0.41501  0.41501  0.00000  0.16998
      24     H     0.41109  0.41109  0.00000  0.17781

   Total alpha = 33.00000, Total beta = 33.00000, Total charge =  0.00000


*** PSI4 exiting successfully. Buy a developer a beer!
