    -----------------------------------------------------------------------
          Psi4: An Open-Source Ab Initio Electronic Structure Package
                              Psi4 (no tag) Driver

                          Git: Rev {detached?}  

    J. M. Turney, A. C. Simmonett, R. M. Parrish, E. G. Hohenstein,
    F. A. Evangelista, J. T. Fermann, B. J. Mintz, L. A. Burns, J. J. Wilke,
    M. L. Abrams, N. J. Russ, M. L. Leininger, C. L. Janssen, E. T. Seidl,
    W. D. Allen, H. F. Schaefer, R. A. King, E. F. Valeev, C. D. Sherrill,
    and T. D. Crawford, WIREs Comput. Mol. Sci. 2, 556-565 (2012)
    (doi: 10.1002/wcms.93)

                         Additional Contributions by
    A. E. DePrince, M. Saitow, U. Bozkaya, A. Yu. Sokolov
    -----------------------------------------------------------------------


    Psi4 started on: Tue Jul  5 16:31:00 2016

    Process ID:  14741
    PSI4DATADIR: /export131/home/mjharvey/miniconda3/share
    Memory level set to 256.000 MB

  ==> Input File <==

--------------------------------------------------------------------------
set {
	reference rhf
	basis 6-31G*
}


set_num_threads( 1 )
memory 2 gb

molecule MOL {
0 1

H	 1.540465	 1.823389	 -1.318404
C	 0.557503	 1.679937	 -0.867300
N	 0.538815	 0.649616	 0.000000
O	 -0.371782	 2.380880	 -1.139915
C	 1.521968	 -0.411503	 0.000000
H	 -0.192644	 0.624219	 0.672761
H	 2.150599	 -0.357004	 -0.881901
H	 0.999455	 -1.354525	 0.000000
H	 2.150599	 -0.357004	 0.881901

	symmetry c1
}
set optking {
	frozen_dihedral = ("
		6 3 5 7
	")
}

ee = energy('scf')
oeprop('DIPOLE', 'QUADRUPOLE', 'MULLIKEN_CHARGES')
f=open( 'psi4out.xyz', 'w' )
f.write( "9  " )
f.write( str(ee) + "\n" )
f.write( MOL.save_string_xyz() )
f.close()
--------------------------------------------------------------------------

  Memory set to   2.000 GiB by Python script.

*** tstart() called on cx1-1-4-3.cx1.hpc.ic.ac.uk
*** at Tue Jul  5 16:31:00 2016


         ---------------------------------------------------------
                                   SCF
            by Justin Turney, Rob Parrish, and Andy Simmonett
                              RHF Reference
                        1 Threads,   2000 MiB Core
         ---------------------------------------------------------

  ==> Geometry <==

    Molecular point group: c1
    Full point group: C1

    Geometry (in Angstrom), charge = 0, multiplicity = 1:

       Center              X                  Y                   Z               Mass       
    ------------   -----------------  -----------------  -----------------  -----------------
           H          0.977215996732     0.759958922014    -0.822256129653     1.007825032070
           C         -0.005746003268     0.616506922014    -0.371152129653    12.000000000000
           N         -0.024434003268    -0.413814077986     0.496147870347    14.003074004780
           O         -0.935031003268     1.317449922014    -0.643767129653    15.994914619560
           C          0.958718996732    -1.474933077986     0.496147870347    12.000000000000
           H         -0.755893003268    -0.439211077986     1.168908870347     1.007825032070
           H          1.587349996732    -1.420434077986    -0.385753129653     1.007825032070
           H          0.436205996732    -2.417955077986     0.496147870347     1.007825032070
           H          1.587349996732    -1.420434077986     1.378048870347     1.007825032070

  Running in c1 symmetry.

  Rotational constants: A =      1.44017  B =      0.14927  C =      0.14019 [cm^-1]
  Rotational constants: A =  43175.14594  B =   4474.92796  C =   4202.68724 [MHz]
  Nuclear repulsion =  120.404272693485964

  Charge       = 0
  Multiplicity = 1
  Electrons    = 32
  Nalpha       = 16
  Nbeta        = 16

  ==> Algorithm <==

  SCF Algorithm Type is DF.
  DIIS enabled.
  MOM disabled.
  Fractional occupation disabled.
  Guess Type is CORE.
  Energy threshold   = 1.00e-06
  Density threshold  = 1.00e-06
  Integral threshold = 0.00e+00

  ==> Primary Basis <==

  Basis Set: 6-31G*
    Number of shells: 34
    Number of basis function: 70
    Number of Cartesian functions: 70
    Spherical Harmonics?: false
    Max angular momentum: 2

  ==> Pre-Iterations <==

   -------------------------------------------------------
    Irrep   Nso     Nmo     Nalpha   Nbeta   Ndocc  Nsocc
   -------------------------------------------------------
     A         70      70       0       0       0       0
   -------------------------------------------------------
    Total      70      70      16      16      16       0
   -------------------------------------------------------

 OEINTS: Overlap, kinetic, potential, dipole, and quadrupole integrals
         stored in file 35.

  ==> Integral Setup <==

  ==> DFJK: Density-Fitted J/K Matrices <==

    J tasked:                  Yes
    K tasked:                  Yes
    wK tasked:                  No
    OpenMP threads:              1
    Integrals threads:           1
    Memory (MB):              1430
    Algorithm:                Core
    Integral Cache:           NONE
    Schwarz Cutoff:          1E-12
    Fitting Condition:       1E-12

   => Auxiliary Basis Set <=

  Basis Set: 
    Number of shells: 141
    Number of basis function: 449
    Number of Cartesian functions: 449
    Spherical Harmonics?: false
    Max angular momentum: 3

  Minimum eigenvalue in the overlap matrix is 4.7321106085E-03.
  Using Symmetric Orthogonalization.
  SCF Guess: Core (One-Electron) Hamiltonian.

  ==> Iterations <==

                           Total Energy        Delta E     RMS |[F,P]|

   @DF-RHF iter   1:  -166.39763569322781   -1.66398e+02   9.40615e-02 
   @DF-RHF iter   2:  -127.87658495522810    3.85211e+01   8.23040e-02 DIIS
   @DF-RHF iter   3:  -187.75935604617513   -5.98828e+01   6.24758e-02 DIIS
   @DF-RHF iter   4:  -207.09243392330029   -1.93331e+01   1.91636e-02 DIIS
   @DF-RHF iter   5:  -207.75752479895527   -6.65091e-01   8.91977e-03 DIIS
   @DF-RHF iter   6:  -207.93274732588299   -1.75223e-01   2.36960e-03 DIIS
   @DF-RHF iter   7:  -207.95157624788618   -1.88289e-02   8.05221e-04 DIIS
   @DF-RHF iter   8:  -207.95360807583944   -2.03183e-03   3.95151e-04 DIIS
   @DF-RHF iter   9:  -207.95409754165775   -4.89466e-04   1.34396e-04 DIIS
   @DF-RHF iter  10:  -207.95419362847065   -9.60868e-05   3.40240e-05 DIIS
   @DF-RHF iter  11:  -207.95420044803171   -6.81956e-06   1.16168e-05 DIIS
   @DF-RHF iter  12:  -207.95420135149789   -9.03466e-07   5.16618e-06 DIIS
   @DF-RHF iter  13:  -207.95420150814857   -1.56651e-07   8.45146e-07 DIIS

  ==> Post-Iterations <==

    Orbital Energies (a.u.)
    -----------------------

    Doubly Occupied:                                                      

       1A    -20.526925     2A    -15.586686     3A    -11.344044  
       4A    -11.275752     5A     -1.388123     6A     -1.239489  
       7A     -0.965426     8A     -0.846572     9A     -0.690968  
      10A     -0.674206    11A     -0.635805    12A     -0.593546  
      13A     -0.574845    14A     -0.536805    15A     -0.423676  
      16A     -0.387931  

    Virtual:                                                              

      17A      0.201231    18A      0.237538    19A      0.248160  
      20A      0.291169    21A      0.300883    22A      0.322058  
      23A      0.374598    24A      0.443725    25A      0.575371  
      26A      0.697855    27A      0.720707    28A      0.754666  
      29A      0.821351    30A      0.853452    31A      0.958857  
      32A      0.994911    33A      1.025521    34A      1.050176  
      35A      1.099764    36A      1.126077    37A      1.135577  
      38A      1.174288    39A      1.209727    40A      1.214277  
      41A      1.311191    42A      1.316959    43A      1.390783  
      44A      1.474236    45A      1.574772    46A      1.717732  
      47A      1.738236    48A      1.831216    49A      1.871993  
      50A      2.080552    51A      2.133667    52A      2.150225  
      53A      2.225118    54A      2.303190    55A      2.327947  
      56A      2.454242    57A      2.528499    58A      2.597020  
      59A      2.619496    60A      2.719914    61A      2.885888  
      62A      2.894713    63A      3.020868    64A      3.186992  
      65A      3.339152    66A      3.454010    67A      4.280586  
      68A      4.329426    69A      4.647398    70A      4.694089  

    Final Occupation by Irrep:
              A 
    DOCC [    16 ]

  Energy converged.

  @DF-RHF Final Energy:  -207.95420150814857

   => Energetics <=

    Nuclear Repulsion Energy =            120.4042726934859644
    One-Electron Energy =                -521.3353296576322009
    Two-Electron Energy =                 192.9768554559977645
    DFT Exchange-Correlation Energy =       0.0000000000000000
    Empirical Dispersion Energy =           0.0000000000000000
    PCM Polarization Energy =               0.0000000000000000
    EFP Energy =                            0.0000000000000000
    Total Energy =                       -207.9542015081484863

    Alert: EFP and PCM quantities not currently incorporated into SCF psivars.

Properties will be evaluated at   0.000000,   0.000000,   0.000000 Bohr
  ==> Properties <==


Properties computed using the SCF density matrix

  Nuclear Dipole Moment: (a.u.)
     X:     3.5882      Y:    -4.6218      Z:     1.7158

  Electronic Dipole Moment: (a.u.)
     X:    -2.6101      Y:     3.4163      Z:    -1.0825

  Dipole Moment: (a.u.)
     X:     0.9781      Y:    -1.2055      Z:     0.6333     Total:     1.6766

  Dipole Moment: (Debye)
     X:     2.4861      Y:    -3.0640      Z:     1.6096     Total:     4.2614


  Saving occupied orbitals to File 180.

*** tstop() called on cx1-1-4-3.cx1.hpc.ic.ac.uk at Tue Jul  5 16:31:03 2016
Module time:
	user time   =       2.82 seconds =       0.05 minutes
	system time =       0.03 seconds =       0.00 minutes
	total time  =          3 seconds =       0.05 minutes
Total time:
	user time   =       2.82 seconds =       0.05 minutes
	system time =       0.03 seconds =       0.00 minutes
	total time  =          3 seconds =       0.05 minutes


Properties will be evaluated at   0.000000,   0.000000,   0.000000 Bohr

Properties computed using the  density matrix

  Nuclear Dipole Moment: (a.u.)
     X:     3.5882      Y:    -4.6218      Z:     1.7158

  Electronic Dipole Moment: (a.u.)
     X:    -2.6101      Y:     3.4163      Z:    -1.0825

  Dipole Moment: (a.u.)
     X:     0.9781      Y:    -1.2055      Z:     0.6333     Total:     1.6766

  Dipole Moment: (Debye)
     X:     2.4861      Y:    -3.0640      Z:     1.6096     Total:     4.2614

  Quadrupole Moment: (Debye Ang)
    XX:   -24.9599     YY:   -26.3377     ZZ:   -23.4341
    XY:     2.5898     XZ:    -3.0127     YZ:     0.7876

  Traceless Quadrupole Moment: (Debye Ang)
    XX:    -0.0493     YY:    -1.4272     ZZ:     1.4765
    XY:     2.5898     XZ:    -3.0127     YZ:     0.7876

  Mulliken Charges: (a.u.)
   Center  Symbol    Alpha    Beta     Spin     Total
       1     H     0.43157  0.43157  0.00000  0.13686
       2     C     2.74217  2.74217  0.00000  0.51565
       3     N     3.87322  3.87322  0.00000 -0.74644
       4     O     4.27985  4.27985  0.00000 -0.55971
       5     C     3.14248  3.14248  0.00000 -0.28495
       6     H     0.30377  0.30377  0.00000  0.39247
       7     H     0.40749  0.40749  0.00000  0.18501
       8     H     0.40689  0.40689  0.00000  0.18622
       9     H     0.41255  0.41255  0.00000  0.17489

   Total alpha = 16.00000, Total beta = 16.00000, Total charge =  0.00000


*** PSI4 exiting successfully. Buy a developer a beer!
