    -----------------------------------------------------------------------
          Psi4: An Open-Source Ab Initio Electronic Structure Package
                              Psi4 (no tag) Driver

                          Git: Rev {detached?}  

    J. M. Turney, A. C. Simmonett, R. M. Parrish, E. G. Hohenstein,
    F. A. Evangelista, J. T. Fermann, B. J. Mintz, L. A. Burns, J. J. Wilke,
    M. L. Abrams, N. J. Russ, M. L. Leininger, C. L. Janssen, E. T. Seidl,
    W. D. Allen, H. F. Schaefer, R. A. King, E. F. Valeev, C. D. Sherrill,
    and T. D. Crawford, WIREs Comput. Mol. Sci. 2, 556-565 (2012)
    (doi: 10.1002/wcms.93)

                         Additional Contributions by
    A. E. DePrince, M. Saitow, U. Bozkaya, A. Yu. Sokolov
    -----------------------------------------------------------------------


    Psi4 started on: Tue Jul  5 16:43:20 2016

    Process ID:  29987
    PSI4DATADIR: /export131/home/mjharvey/miniconda3/share
    Memory level set to 256.000 MB

  ==> Input File <==

--------------------------------------------------------------------------
set {
	reference rhf
	basis 6-31G*
}


set_num_threads( 1 )
memory 2 gb

molecule MOL {
0 1

H	 0.075655	 1.724700	 0.560390
N	 -0.456516	 0.876527	 0.541107
C	 0.411825	 -0.271767	 0.350028
H	 -1.096509	 0.942907	 -0.226429
C	 0.971803	 -0.268062	 -1.056935
H	 1.245876	 -0.313000	 1.051925
H	 -0.173567	 -1.175924	 0.486406
O	 -0.088814	 -0.446451	 -1.951562
H	 1.476952	 0.676258	 -1.258733
H	 1.695616	 -1.072886	 -1.164576
C	 -0.684476	 0.736686	 -2.379283
H	 0.102015	 1.393570	 -2.725165
H	 -1.379311	 0.559059	 -3.198206
H	 -1.222626	 1.226017	 -1.570112

	symmetry c1
}
set optking {
	frozen_dihedral = ("
		8 5 3 6,
		6 3 2 4,
		5 8 11 13
	")
}

ee = energy('scf')
oeprop('DIPOLE', 'QUADRUPOLE', 'MULLIKEN_CHARGES')
f=open( 'psi4out.xyz', 'w' )
f.write( "14  " )
f.write( str(ee) + "\n" )
f.write( MOL.save_string_xyz() )
f.close()
--------------------------------------------------------------------------

  Memory set to   2.000 GiB by Python script.

*** tstart() called on cx1-3-6-4.cx1.hpc.ic.ac.uk
*** at Tue Jul  5 16:43:21 2016


         ---------------------------------------------------------
                                   SCF
            by Justin Turney, Rob Parrish, and Andy Simmonett
                              RHF Reference
                        1 Threads,   2000 MiB Core
         ---------------------------------------------------------

  ==> Geometry <==

    Molecular point group: c1
    Full point group: C1

    Geometry (in Angstrom), charge = 0, multiplicity = 1:

       Center              X                  Y                   Z               Mass       
    ------------   -----------------  -----------------  -----------------  -----------------
           H          0.058252322015     1.571678191826     1.476616027494     1.007825032070
           N         -0.473918677985     0.723505191826     1.457333027494    14.003074004780
           C          0.394422322015    -0.424788808174     1.266254027494    12.000000000000
           H         -1.113911677985     0.789885191826     0.689797027494     1.007825032070
           C          0.954400322015    -0.421083808174    -0.140708972506    12.000000000000
           H          1.228473322015    -0.466021808174     1.968151027494     1.007825032070
           H         -0.190969677985    -1.328945808174     1.402632027494     1.007825032070
           O         -0.106216677985    -0.599472808174    -1.035335972506    15.994914619560
           H          1.459549322015     0.523236191826    -0.342506972506     1.007825032070
           H          1.678213322015    -1.225907808174    -0.248349972506     1.007825032070
           C         -0.701878677985     0.583664191826    -1.463056972506    12.000000000000
           H          0.084612322015     1.240548191826    -1.808938972506     1.007825032070
           H         -1.396713677985     0.406037191826    -2.281979972506     1.007825032070
           H         -1.240028677985     1.072995191826    -0.653885972506     1.007825032070

  Running in c1 symmetry.

  Rotational constants: A =      0.27042  B =      0.13718  C =      0.10310 [cm^-1]
  Rotational constants: A =   8106.94707  B =   4112.46313  C =   3090.79001 [MHz]
  Nuclear repulsion =  201.567861274590797

  Charge       = 0
  Multiplicity = 1
  Electrons    = 42
  Nalpha       = 21
  Nbeta        = 21

  ==> Algorithm <==

  SCF Algorithm Type is DF.
  DIIS enabled.
  MOM disabled.
  Fractional occupation disabled.
  Guess Type is CORE.
  Energy threshold   = 1.00e-06
  Density threshold  = 1.00e-06
  Integral threshold = 0.00e+00

  ==> Primary Basis <==

  Basis Set: 6-31G*
    Number of shells: 48
    Number of basis function: 93
    Number of Cartesian functions: 93
    Spherical Harmonics?: false
    Max angular momentum: 2

  ==> Pre-Iterations <==

   -------------------------------------------------------
    Irrep   Nso     Nmo     Nalpha   Nbeta   Ndocc  Nsocc
   -------------------------------------------------------
     A         93      93       0       0       0       0
   -------------------------------------------------------
    Total      93      93      21      21      21       0
   -------------------------------------------------------

 OEINTS: Overlap, kinetic, potential, dipole, and quadrupole integrals
         stored in file 35.

  ==> Integral Setup <==

  ==> DFJK: Density-Fitted J/K Matrices <==

    J tasked:                  Yes
    K tasked:                  Yes
    wK tasked:                  No
    OpenMP threads:              1
    Integrals threads:           1
    Memory (MB):              1430
    Algorithm:                Core
    Integral Cache:           NONE
    Schwarz Cutoff:          1E-12
    Fitting Condition:       1E-12

   => Auxiliary Basis Set <=

  Basis Set: 
    Number of shells: 201
    Number of basis function: 630
    Number of Cartesian functions: 630
    Spherical Harmonics?: false
    Max angular momentum: 3

  Minimum eigenvalue in the overlap matrix is 4.7172356067E-03.
  Using Symmetric Orthogonalization.
  SCF Guess: Core (One-Electron) Hamiltonian.

  ==> Iterations <==

                           Total Energy        Delta E     RMS |[F,P]|

   @DF-RHF iter   1:  -203.15082006853729   -2.03151e+02   7.86214e-02 
   @DF-RHF iter   2:  -167.74404001027270    3.54068e+01   7.52080e-02 DIIS
   @DF-RHF iter   3:  -229.05567931405150   -6.13116e+01   4.27438e-02 DIIS
   @DF-RHF iter   4:  -232.91024549045696   -3.85457e+00   4.69999e-02 DIIS
   @DF-RHF iter   5:  -247.99775623965806   -1.50875e+01   4.73486e-03 DIIS
   @DF-RHF iter   6:  -248.07907145491956   -8.13152e-02   2.02476e-03 DIIS
   @DF-RHF iter   7:  -248.09450124617760   -1.54298e-02   4.80801e-04 DIIS
   @DF-RHF iter   8:  -248.09606627913544   -1.56503e-03   1.88264e-04 DIIS
   @DF-RHF iter   9:  -248.09624669583255   -1.80417e-04   9.53512e-05 DIIS
   @DF-RHF iter  10:  -248.09629492463094   -4.82288e-05   3.59189e-05 DIIS
   @DF-RHF iter  11:  -248.09630154503461   -6.62040e-06   8.66611e-06 DIIS
   @DF-RHF iter  12:  -248.09630200788544   -4.62851e-07   2.40828e-06 DIIS
   @DF-RHF iter  13:  -248.09630204759580   -3.97104e-08   5.56953e-07 DIIS

  ==> Post-Iterations <==

    Orbital Energies (a.u.)
    -----------------------

    Doubly Occupied:                                                      

       1A    -20.562571     2A    -15.531609     3A    -11.275275  
       4A    -11.269307     5A    -11.241705     6A     -1.390185  
       7A     -1.182837     8A     -1.008631     9A     -0.912051  
      10A     -0.830342    11A     -0.714394    12A     -0.671369  
      13A     -0.650302    14A     -0.625906    15A     -0.592756  
      16A     -0.557985    17A     -0.526970    18A     -0.513537  
      19A     -0.475290    20A     -0.441825    21A     -0.365770  

    Virtual:                                                              

      22A      0.227654    23A      0.262534    24A      0.271724  
      25A      0.290046    26A      0.302401    27A      0.324741  
      28A      0.327184    29A      0.331261    30A      0.353213  
      31A      0.414597    32A      0.434839    33A      0.448736  
      34A      0.510999    35A      0.744161    36A      0.758109  
      37A      0.771346    38A      0.787822    39A      0.814850  
      40A      0.825550    41A      0.847818    42A      0.912523  
      43A      0.998606    44A      1.003004    45A      1.065755  
      46A      1.080821    47A      1.108279    48A      1.130727  
      49A      1.148588    50A      1.158794    51A      1.194682  
      52A      1.213609    53A      1.220251    54A      1.249521  
      55A      1.256823    56A      1.278008    57A      1.344329  
      58A      1.434275    59A      1.469681    60A      1.560669  
      61A      1.606485    62A      1.718215    63A      1.762488  
      64A      1.786143    65A      1.871313    66A      1.924148  
      67A      2.004019    68A      2.053170    69A      2.206929  
      70A      2.244871    71A      2.344494    72A      2.366235  
      73A      2.384019    74A      2.413285    75A      2.456401  
      76A      2.478567    77A      2.539734    78A      2.572795  
      79A      2.633287    80A      2.706054    81A      2.751925  
      82A      2.832338    83A      2.896570    84A      2.910950  
      85A      3.020017    86A      3.081116    87A      3.139809  
      88A      3.301493    89A      4.268107    90A      4.383392  
      91A      4.654611    92A      4.730045    93A      4.898328  

    Final Occupation by Irrep:
              A 
    DOCC [    21 ]

  Energy converged.

  @DF-RHF Final Energy:  -248.09630204759580

   => Energetics <=

    Nuclear Repulsion Energy =            201.5678612745907969
    One-Electron Energy =                -736.6470473447072891
    Two-Electron Energy =                 286.9828840225200111
    DFT Exchange-Correlation Energy =       0.0000000000000000
    Empirical Dispersion Energy =           0.0000000000000000
    PCM Polarization Energy =               0.0000000000000000
    EFP Energy =                            0.0000000000000000
    Total Energy =                       -248.0963020475965095

    Alert: EFP and PCM quantities not currently incorporated into SCF psivars.

Properties will be evaluated at   0.000000,   0.000000,   0.000000 Bohr
  ==> Properties <==


Properties computed using the SCF density matrix

  Nuclear Dipole Moment: (a.u.)
     X:     0.5329      Y:     2.4170      Z:     0.1797

  Electronic Dipole Moment: (a.u.)
     X:    -0.0693      Y:    -1.8442      Z:    -0.5626

  Dipole Moment: (a.u.)
     X:     0.4636      Y:     0.5728      Z:    -0.3829     Total:     0.8305

  Dipole Moment: (Debye)
     X:     1.1783      Y:     1.4560      Z:    -0.9733     Total:     2.1108


  Saving occupied orbitals to File 180.

*** tstop() called on cx1-3-6-4.cx1.hpc.ic.ac.uk at Tue Jul  5 16:43:26 2016
Module time:
	user time   =       4.98 seconds =       0.08 minutes
	system time =       0.05 seconds =       0.00 minutes
	total time  =          5 seconds =       0.08 minutes
Total time:
	user time   =       4.98 seconds =       0.08 minutes
	system time =       0.05 seconds =       0.00 minutes
	total time  =          5 seconds =       0.08 minutes


Properties will be evaluated at   0.000000,   0.000000,   0.000000 Bohr

Properties computed using the  density matrix

  Nuclear Dipole Moment: (a.u.)
     X:     0.5329      Y:     2.4170      Z:     0.1797

  Electronic Dipole Moment: (a.u.)
     X:    -0.0693      Y:    -1.8442      Z:    -0.5626

  Dipole Moment: (a.u.)
     X:     0.4636      Y:     0.5728      Z:    -0.3829     Total:     0.8305

  Dipole Moment: (Debye)
     X:     1.1783      Y:     1.4560      Z:    -0.9733     Total:     2.1108

  Quadrupole Moment: (Debye Ang)
    XX:   -30.9334     YY:   -31.3495     ZZ:   -37.0774
    XY:    -0.4891     XZ:     3.8611     YZ:    -3.1763

  Traceless Quadrupole Moment: (Debye Ang)
    XX:     2.1867     YY:     1.7706     ZZ:    -3.9573
    XY:    -0.4891     XZ:     3.8611     YZ:    -3.1763

  Mulliken Charges: (a.u.)
   Center  Symbol    Alpha    Beta     Spin     Total
       1     H     0.33743  0.33743  0.00000  0.32514
       2     N     3.92489  3.92489  0.00000 -0.84978
       3     C     3.06755  3.06755  0.00000 -0.13511
       4     H     0.31619  0.31619  0.00000  0.36762
       5     C     3.00665  3.00665  0.00000 -0.01330
       6     H     0.42220  0.42220  0.00000  0.15561
       7     H     0.40902  0.40902  0.00000  0.18196
       8     O     4.30394  4.30394  0.00000 -0.60788
       9     H     0.43423  0.43423  0.00000  0.13155
      10     H     0.41639  0.41639  0.00000  0.16721
      11     C     3.07947  3.07947  0.00000 -0.15893
      12     H     0.42557  0.42557  0.00000  0.14887
      13     H     0.40850  0.40850  0.00000  0.18300
      14     H     0.44798  0.44798  0.00000  0.10404

   Total alpha = 21.00000, Total beta = 21.00000, Total charge =  0.00000


*** PSI4 exiting successfully. Buy a developer a beer!
