    -----------------------------------------------------------------------
          Psi4: An Open-Source Ab Initio Electronic Structure Package
                              Psi4 (no tag) Driver

                          Git: Rev {detached?}  

    J. M. Turney, A. C. Simmonett, R. M. Parrish, E. G. Hohenstein,
    F. A. Evangelista, J. T. Fermann, B. J. Mintz, L. A. Burns, J. J. Wilke,
    M. L. Abrams, N. J. Russ, M. L. Leininger, C. L. Janssen, E. T. Seidl,
    W. D. Allen, H. F. Schaefer, R. A. King, E. F. Valeev, C. D. Sherrill,
    and T. D. Crawford, WIREs Comput. Mol. Sci. 2, 556-565 (2012)
    (doi: 10.1002/wcms.93)

                         Additional Contributions by
    A. E. DePrince, M. Saitow, U. Bozkaya, A. Yu. Sokolov
    -----------------------------------------------------------------------


    Psi4 started on: Tue Jul  5 16:23:07 2016

    Process ID:   5413
    PSI4DATADIR: /export131/home/mjharvey/miniconda3/share
    Memory level set to 256.000 MB

  ==> Input File <==

--------------------------------------------------------------------------
set {
	reference rhf
	basis 6-31G*
}


set_num_threads( 1 )
memory 2 gb

molecule MOL {
0 1

H	 -1.070890	 -1.366565	 0.180696
O	 -1.422729	 -0.573567	 -0.196946
C	 -0.731407	 0.539437	 0.309156
C	 0.680193	 0.672443	 -0.251532
H	 -1.319765	 1.404033	 0.030086
H	 -0.700012	 0.506517	 1.397677
C	 0.839083	 1.823126	 -1.245709
H	 1.370050	 0.806882	 0.576520
H	 0.943795	 -0.264965	 -0.736630
H	 0.653587	 2.783409	 -0.773860
H	 1.845877	 1.853768	 -1.648690
H	 0.152848	 1.719792	 -2.082768

	symmetry c1
}
set optking {
	frozen_dihedral = ("
		1 2 3 4
	")
}

ee = energy('scf')
oeprop('DIPOLE', 'QUADRUPOLE', 'MULLIKEN_CHARGES')
f=open( 'psi4out.xyz', 'w' )
f.write( "12  " )
f.write( str(ee) + "\n" )
f.write( MOL.save_string_xyz() )
f.close()
--------------------------------------------------------------------------

  Memory set to   2.000 GiB by Python script.

*** tstart() called on cx1-1-3-4.cx1.hpc.ic.ac.uk
*** at Tue Jul  5 16:23:07 2016


         ---------------------------------------------------------
                                   SCF
            by Justin Turney, Rob Parrish, and Andy Simmonett
                              RHF Reference
                        1 Threads,   2000 MiB Core
         ---------------------------------------------------------

  ==> Geometry <==

    Molecular point group: c1
    Full point group: C1

    Geometry (in Angstrom), charge = 0, multiplicity = 1:

       Center              X                  Y                   Z               Mass       
    ------------   -----------------  -----------------  -----------------  -----------------
           H         -0.880874893049    -1.945127542628     0.521836394793     1.007825032070
           O         -1.232713893049    -1.152129542628     0.144194394793    15.994914619560
           C         -0.541391893049    -0.039125542628     0.650296394793    12.000000000000
           C          0.870208106951     0.093880457372     0.089608394793    12.000000000000
           H         -1.129749893049     0.825470457372     0.371226394793     1.007825032070
           H         -0.509996893049    -0.072045542628     1.738817394793     1.007825032070
           C          1.029098106951     1.244563457372    -0.904568605207    12.000000000000
           H          1.560065106951     0.228319457372     0.917660394793     1.007825032070
           H          1.133810106951    -0.843527542628    -0.395489605207     1.007825032070
           H          0.843602106951     2.204846457372    -0.432719605207     1.007825032070
           H          2.035892106951     1.275205457372    -1.307549605207     1.007825032070
           H          0.342863106951     1.141229457372    -1.741627605207     1.007825032070

  Running in c1 symmetry.

  Rotational constants: A =      0.63723  B =      0.13596  C =      0.13312 [cm^-1]
  Rotational constants: A =  19103.79293  B =   4076.05571  C =   3990.90507 [MHz]
  Nuclear repulsion =  131.540295984610935

  Charge       = 0
  Multiplicity = 1
  Electrons    = 34
  Nalpha       = 17
  Nbeta        = 17

  ==> Algorithm <==

  SCF Algorithm Type is DF.
  DIIS enabled.
  MOM disabled.
  Fractional occupation disabled.
  Guess Type is CORE.
  Energy threshold   = 1.00e-06
  Density threshold  = 1.00e-06
  Integral threshold = 0.00e+00

  ==> Primary Basis <==

  Basis Set: 6-31G*
    Number of shells: 40
    Number of basis function: 76
    Number of Cartesian functions: 76
    Spherical Harmonics?: false
    Max angular momentum: 2

  ==> Pre-Iterations <==

   -------------------------------------------------------
    Irrep   Nso     Nmo     Nalpha   Nbeta   Ndocc  Nsocc
   -------------------------------------------------------
     A         76      76       0       0       0       0
   -------------------------------------------------------
    Total      76      76      17      17      17       0
   -------------------------------------------------------

 OEINTS: Overlap, kinetic, potential, dipole, and quadrupole integrals
         stored in file 35.

  ==> Integral Setup <==

  ==> DFJK: Density-Fitted J/K Matrices <==

    J tasked:                  Yes
    K tasked:                  Yes
    wK tasked:                  No
    OpenMP threads:              1
    Integrals threads:           1
    Memory (MB):              1430
    Algorithm:                Core
    Integral Cache:           NONE
    Schwarz Cutoff:          1E-12
    Fitting Condition:       1E-12

   => Auxiliary Basis Set <=

  Basis Set: 
    Number of shells: 168
    Number of basis function: 524
    Number of Cartesian functions: 524
    Spherical Harmonics?: false
    Max angular momentum: 3

  Minimum eigenvalue in the overlap matrix is 4.8210927623E-03.
  Using Symmetric Orthogonalization.
  SCF Guess: Core (One-Electron) Hamiltonian.

  ==> Iterations <==

                           Total Energy        Delta E     RMS |[F,P]|

   @DF-RHF iter   1:  -155.98592632850225   -1.55986e+02   8.64652e-02 
   @DF-RHF iter   2:  -114.99145792390783    4.09945e+01   7.88369e-02 DIIS
   @DF-RHF iter   3:  -163.79632891871123   -4.88049e+01   6.51689e-02 DIIS
   @DF-RHF iter   4:  -192.18833495612844   -2.83920e+01   1.77915e-02 DIIS
   @DF-RHF iter   5:  -193.06089166555236   -8.72557e-01   3.78023e-03 DIIS
   @DF-RHF iter   6:  -193.10034281464092   -3.94511e-02   1.05363e-03 DIIS
   @DF-RHF iter   7:  -193.10339543160555   -3.05262e-03   3.52915e-04 DIIS
   @DF-RHF iter   8:  -193.10385337554314   -4.57944e-04   1.17096e-04 DIIS
   @DF-RHF iter   9:  -193.10390432491741   -5.09494e-05   3.77668e-05 DIIS
   @DF-RHF iter  10:  -193.10391078769109   -6.46277e-06   9.40745e-06 DIIS
   @DF-RHF iter  11:  -193.10391135051660   -5.62826e-07   2.54999e-06 DIIS
   @DF-RHF iter  12:  -193.10391139268128   -4.21647e-08   6.16338e-07 DIIS

  ==> Post-Iterations <==

    Orbital Energies (a.u.)
    -----------------------

    Doubly Occupied:                                                      

       1A    -20.551636     2A    -11.266442     3A    -11.216625  
       4A    -11.212225     5A     -1.358883     6A     -1.050290  
       7A     -0.918644     8A     -0.816826     9A     -0.688514  
      10A     -0.622645    11A     -0.621845    12A     -0.576296  
      13A     -0.528760    14A     -0.520352    15A     -0.487873  
      16A     -0.463003    17A     -0.427335  

    Virtual:                                                              

      18A      0.227144    19A      0.249684    20A      0.282757  
      21A      0.291008    22A      0.315328    23A      0.323536  
      24A      0.336248    25A      0.346393    26A      0.415850  
      27A      0.451352    28A      0.467737    29A      0.723842  
      30A      0.731546    31A      0.761145    32A      0.814775  
      33A      0.835369    34A      0.899989    35A      0.955975  
      36A      0.964898    37A      1.014718    38A      1.086347  
      39A      1.143169    40A      1.158648    41A      1.169673  
      42A      1.175195    43A      1.184934    44A      1.200758  
      45A      1.231777    46A      1.255355    47A      1.280700  
      48A      1.322349    49A      1.428264    50A      1.533077  
      51A      1.682146    52A      1.715613    53A      1.839280  
      54A      1.883986    55A      2.025456    56A      2.044350  
      57A      2.072347    58A      2.213801    59A      2.255385  
      60A      2.315313    61A      2.371080    62A      2.448176  
      63A      2.537309    64A      2.596462    65A      2.645838  
      66A      2.678894    67A      2.760454    68A      2.845806  
      69A      2.887289    70A      2.950250    71A      3.069640  
      72A      3.207998    73A      4.171785    74A      4.572381  
      75A      4.740036    76A      4.932425  

    Final Occupation by Irrep:
              A 
    DOCC [    17 ]

  Energy converged.

  @DF-RHF Final Energy:  -193.10391139268128

   => Energetics <=

    Nuclear Repulsion Energy =            131.5402959846109354
    One-Electron Energy =                -522.6320890344604777
    Two-Electron Energy =                 197.9878816571681455
    DFT Exchange-Correlation Energy =       0.0000000000000000
    Empirical Dispersion Energy =           0.0000000000000000
    PCM Polarization Energy =               0.0000000000000000
    EFP Energy =                            0.0000000000000000
    Total Energy =                       -193.1039113926814252

    Alert: EFP and PCM quantities not currently incorporated into SCF psivars.

Properties will be evaluated at   0.000000,   0.000000,   0.000000 Bohr
  ==> Properties <==


Properties computed using the SCF density matrix

  Nuclear Dipole Moment: (a.u.)
     X:     3.1774      Y:     2.6329      Z:    -0.3067

  Electronic Dipole Moment: (a.u.)
     X:    -2.6107      Y:    -2.6766      Z:     0.7481

  Dipole Moment: (a.u.)
     X:     0.5667      Y:    -0.0437      Z:     0.4414     Total:     0.7196

  Dipole Moment: (Debye)
     X:     1.4403      Y:    -0.1111      Z:     1.1219     Total:     1.8291


  Saving occupied orbitals to File 180.

*** tstop() called on cx1-1-3-4.cx1.hpc.ic.ac.uk at Tue Jul  5 16:23:10 2016
Module time:
	user time   =       2.81 seconds =       0.05 minutes
	system time =       0.04 seconds =       0.00 minutes
	total time  =          3 seconds =       0.05 minutes
Total time:
	user time   =       2.81 seconds =       0.05 minutes
	system time =       0.04 seconds =       0.00 minutes
	total time  =          3 seconds =       0.05 minutes


Properties will be evaluated at   0.000000,   0.000000,   0.000000 Bohr

Properties computed using the  density matrix

  Nuclear Dipole Moment: (a.u.)
     X:     3.1774      Y:     2.6329      Z:    -0.3067

  Electronic Dipole Moment: (a.u.)
     X:    -2.6107      Y:    -2.6766      Z:     0.7481

  Dipole Moment: (a.u.)
     X:     0.5667      Y:    -0.0437      Z:     0.4414     Total:     0.7196

  Dipole Moment: (Debye)
     X:     1.4403      Y:    -0.1111      Z:     1.1219     Total:     1.8291

  Quadrupole Moment: (Debye Ang)
    XX:   -30.0111     YY:   -23.7462     ZZ:   -25.9859
    XY:    -1.6442     XZ:    -0.6396     YZ:    -1.5159

  Traceless Quadrupole Moment: (Debye Ang)
    XX:    -3.4300     YY:     2.8348     ZZ:     0.5952
    XY:    -1.6442     XZ:    -0.6396     YZ:    -1.5159

  Mulliken Charges: (a.u.)
   Center  Symbol    Alpha    Beta     Spin     Total
       1     H     0.28308  0.28308  0.00000  0.43383
       2     O     4.36978  4.36978  0.00000 -0.73955
       3     C     2.99853  2.99853  0.00000  0.00295
       4     C     3.16701  3.16701  0.00000 -0.33402
       5     H     0.41366  0.41366  0.00000  0.17269
       6     H     0.42970  0.42970  0.00000  0.14060
       7     C     3.24451  3.24451  0.00000 -0.48902
       8     H     0.42230  0.42230  0.00000  0.15540
       9     H     0.41628  0.41628  0.00000  0.16744
      10     H     0.42142  0.42142  0.00000  0.15716
      11     H     0.41899  0.41899  0.00000  0.16202
      12     H     0.41475  0.41475  0.00000  0.17051

   Total alpha = 17.00000, Total beta = 17.00000, Total charge =  0.00000


*** PSI4 exiting successfully. Buy a developer a beer!
