    -----------------------------------------------------------------------
          Psi4: An Open-Source Ab Initio Electronic Structure Package
                              Psi4 (no tag) Driver

                          Git: Rev {detached?}  

    J. M. Turney, A. C. Simmonett, R. M. Parrish, E. G. Hohenstein,
    F. A. Evangelista, J. T. Fermann, B. J. Mintz, L. A. Burns, J. J. Wilke,
    M. L. Abrams, N. J. Russ, M. L. Leininger, C. L. Janssen, E. T. Seidl,
    W. D. Allen, H. F. Schaefer, R. A. King, E. F. Valeev, C. D. Sherrill,
    and T. D. Crawford, WIREs Comput. Mol. Sci. 2, 556-565 (2012)
    (doi: 10.1002/wcms.93)

                         Additional Contributions by
    A. E. DePrince, M. Saitow, U. Bozkaya, A. Yu. Sokolov
    -----------------------------------------------------------------------


    Psi4 started on: Tue Jul  5 16:28:11 2016

    Process ID:   7280
    PSI4DATADIR: /export131/home/mjharvey/miniconda3/share
    Memory level set to 256.000 MB

  ==> Input File <==

--------------------------------------------------------------------------
set {
	reference rhf
	basis 6-31G*
}


set_num_threads( 1 )
memory 2 gb

molecule MOL {
0 1

O	 -0.295000	 1.354000	 -0.000000
C	 -0.453000	 0.176000	 -0.000000
C	 -1.787000	 -0.519000	 0.000000
O	 0.547000	 -0.695000	 -0.000000
H	 -1.868000	 -1.155000	 -0.874000
H	 -2.578000	 0.215000	 -0.001000
H	 -1.869000	 -1.153000	 0.876000
C	 1.860000	 -0.164000	 0.000000
H	 2.026000	 0.439000	 -0.881000
H	 2.523000	 -1.015000	 0.002000
H	 2.025000	 0.441000	 0.880000

	symmetry c1
}
ee = optimize('scf')
oeprop('DIPOLE', 'QUADRUPOLE', 'MULLIKEN_CHARGES')
f=open( 'psi4out.xyz', 'w' )
f.write( "11  " )
f.write( str(ee) + "\n" )
f.write( MOL.save_string_xyz() )
f.close()
--------------------------------------------------------------------------

  Memory set to   2.000 GiB by Python script.
gradient() will perform analytic gradient computation.

*** tstart() called on cx1-1-4-3.cx1.hpc.ic.ac.uk
*** at Tue Jul  5 16:28:12 2016


         ---------------------------------------------------------
                                   SCF
            by Justin Turney, Rob Parrish, and Andy Simmonett
                              RHF Reference
                        1 Threads,   2000 MiB Core
         ---------------------------------------------------------

  ==> Geometry <==

    Molecular point group: c1
    Full point group: C1

    Geometry (in Angstrom), charge = 0, multiplicity = 1:

       Center              X                  Y                   Z               Mass       
    ------------   -----------------  -----------------  -----------------  -----------------
           O         -0.291376735528     1.324133566319    -0.000027224983    15.994914619560
           C         -0.449376735528     0.146133566319    -0.000027224983    12.000000000000
           C         -1.783376735528    -0.548866433681    -0.000027224983    12.000000000000
           O          0.550623264472    -0.724866433681    -0.000027224983    15.994914619560
           H         -1.864376735528    -1.184866433681    -0.874027224983     1.007825032070
           H         -2.574376735528     0.185133566319    -0.001027224983     1.007825032070
           H         -1.865376735528    -1.182866433681     0.875972775017     1.007825032070
           C          1.863623264472    -0.193866433681    -0.000027224983    12.000000000000
           H          2.029623264472     0.409133566319    -0.881027224983     1.007825032070
           H          2.526623264472    -1.044866433681     0.001972775017     1.007825032070
           H          2.028623264472     0.411133566319     0.879972775017     1.007825032070

  Running in c1 symmetry.

  Rotational constants: A =      0.35080  B =      0.14034  C =      0.10408 [cm^-1]
  Rotational constants: A =  10516.65724  B =   4207.22543  C =   3120.29923 [MHz]
  Nuclear repulsion =  183.331884191452644

  Charge       = 0
  Multiplicity = 1
  Electrons    = 40
  Nalpha       = 20
  Nbeta        = 20

  ==> Algorithm <==

  SCF Algorithm Type is DF.
  DIIS enabled.
  MOM disabled.
  Fractional occupation disabled.
  Guess Type is CORE.
  Energy threshold   = 1.00e-08
  Density threshold  = 1.00e-08
  Integral threshold = 0.00e+00

  ==> Primary Basis <==

  Basis Set: 6-31G*
    Number of shells: 42
    Number of basis function: 87
    Number of Cartesian functions: 87
    Spherical Harmonics?: false
    Max angular momentum: 2

  ==> Pre-Iterations <==

   -------------------------------------------------------
    Irrep   Nso     Nmo     Nalpha   Nbeta   Ndocc  Nsocc
   -------------------------------------------------------
     A         87      87       0       0       0       0
   -------------------------------------------------------
    Total      87      87      20      20      20       0
   -------------------------------------------------------

 OEINTS: Overlap, kinetic, potential, dipole, and quadrupole integrals
         stored in file 35.

  ==> Integral Setup <==

  ==> DFJK: Density-Fitted J/K Matrices <==

    J tasked:                  Yes
    K tasked:                  Yes
    wK tasked:                  No
    OpenMP threads:              1
    Integrals threads:           1
    Memory (MB):              1430
    Algorithm:                Core
    Integral Cache:           NONE
    Schwarz Cutoff:          1E-12
    Fitting Condition:       1E-12

   => Auxiliary Basis Set <=

  Basis Set: 
    Number of shells: 174
    Number of basis function: 555
    Number of Cartesian functions: 555
    Spherical Harmonics?: false
    Max angular momentum: 3

  Minimum eigenvalue in the overlap matrix is 3.9521099867E-03.
  Using Symmetric Orthogonalization.
  SCF Guess: Core (One-Electron) Hamiltonian.

  ==> Iterations <==

                           Total Energy        Delta E     RMS |[F,P]|

   @DF-RHF iter   1:  -212.73008621484618   -2.12730e+02   8.81051e-02 
   @DF-RHF iter   2:  -210.02745689725973    2.70263e+00   6.21843e-02 DIIS
   @DF-RHF iter   3:  -240.40174672226439   -3.03743e+01   6.68012e-02 DIIS
   @DF-RHF iter   4:  -257.48854796592911   -1.70868e+01   4.27929e-02 DIIS
   @DF-RHF iter   5:  -263.48563211546264   -5.99708e+00   2.23395e-02 DIIS
   @DF-RHF iter   6:  -266.28052006617202   -2.79489e+00   1.18397e-02 DIIS
   @DF-RHF iter   7:  -266.80812174472533   -5.27602e-01   2.32712e-03 DIIS
   @DF-RHF iter   8:  -266.83305418060104   -2.49324e-02   8.98804e-04 DIIS
   @DF-RHF iter   9:  -266.83583891073545   -2.78473e-03   3.89607e-04 DIIS
   @DF-RHF iter  10:  -266.83639050484101   -5.51594e-04   9.12934e-05 DIIS
   @DF-RHF iter  11:  -266.83643808276190   -4.75779e-05   2.43867e-05 DIIS
   @DF-RHF iter  12:  -266.83644117935955   -3.09660e-06   7.09489e-06 DIIS
   @DF-RHF iter  13:  -266.83644147454777   -2.95188e-07   1.70254e-06 DIIS
   @DF-RHF iter  14:  -266.83644149525435   -2.07066e-08   3.98619e-07 DIIS
   @DF-RHF iter  15:  -266.83644149652355   -1.26920e-09   7.48053e-08 DIIS
   @DF-RHF iter  16:  -266.83644149657539   -5.18412e-11   1.55292e-08 DIIS
   @DF-RHF iter  17:  -266.83644149657721   -1.81899e-12   4.37296e-09 DIIS

  ==> Post-Iterations <==

    Orbital Energies (a.u.)
    -----------------------

    Doubly Occupied:                                                      

       1A    -20.606129     2A    -20.546498     3A    -11.376547  
       4A    -11.282209     5A    -11.234786     6A     -1.471356  
       7A     -1.364395     8A     -1.036030     9A     -0.953033  
      10A     -0.778423    11A     -0.695771    12A     -0.681244  
      13A     -0.677288    14A     -0.595045    15A     -0.591943  
      16A     -0.560957    17A     -0.524527    18A     -0.524096  
      19A     -0.458006    20A     -0.442392  

    Virtual:                                                              

      21A      0.197133    22A      0.249398    23A      0.265445  
      24A      0.298848    25A      0.312389    26A      0.314411  
      27A      0.337766    28A      0.349672    29A      0.411579  
      30A      0.501404    31A      0.547473    32A      0.722305  
      33A      0.729437    34A      0.755438    35A      0.775723  
      36A      0.812412    37A      0.814138    38A      0.855710  
      39A      0.921103    40A      0.985706    41A      1.041218  
      42A      1.102970    43A      1.121763    44A      1.122543  
      45A      1.134382    46A      1.188681    47A      1.197722  
      48A      1.212999    49A      1.230226    50A      1.281155  
      51A      1.356528    52A      1.370155    53A      1.381738  
      54A      1.497451    55A      1.639877    56A      1.661930  
      57A      1.730712    58A      1.806308    59A      1.823032  
      60A      1.924143    61A      1.996836    62A      2.060402  
      63A      2.099667    64A      2.151556    65A      2.205160  
      66A      2.292971    67A      2.361072    68A      2.392899  
      69A      2.437979    70A      2.467582    71A      2.530212  
      72A      2.557746    73A      2.681032    74A      2.683686  
      75A      2.720608    76A      2.821514    77A      2.949903  
      78A      3.059212    79A      3.129039    80A      3.340001  
      81A      3.399592    82A      3.544595    83A      4.406509  
      84A      4.511787    85A      4.596844    86A      4.692514  
      87A      4.883456  

    Final Occupation by Irrep:
              A 
    DOCC [    20 ]

  Energy converged.

  @DF-RHF Final Energy:  -266.83644149657721

   => Energetics <=

    Nuclear Repulsion Energy =            183.3318841914526445
    One-Electron Energy =                -727.5353038139966202
    Two-Electron Energy =                 277.3669781259667957
    DFT Exchange-Correlation Energy =       0.0000000000000000
    Empirical Dispersion Energy =           0.0000000000000000
    PCM Polarization Energy =               0.0000000000000000
    EFP Energy =                            0.0000000000000000
    Total Energy =                       -266.8364414965771516

    Alert: EFP and PCM quantities not currently incorporated into SCF psivars.

Properties will be evaluated at   0.000000,   0.000000,   0.000000 Bohr
  ==> Properties <==


Properties computed using the SCF density matrix

  Nuclear Dipole Moment: (a.u.)
     X:     0.2644      Y:    -2.2538      Z:     0.0017

  Electronic Dipole Moment: (a.u.)
     X:    -0.1131      Y:     1.4852      Z:    -0.0015

  Dipole Moment: (a.u.)
     X:     0.1514      Y:    -0.7686      Z:     0.0002     Total:     0.7834

  Dipole Moment: (Debye)
     X:     0.3847      Y:    -1.9536      Z:     0.0004     Total:     1.9911


  Saving occupied orbitals to File 180.

*** tstop() called on cx1-1-4-3.cx1.hpc.ic.ac.uk at Tue Jul  5 16:28:16 2016
Module time:
	user time   =       3.76 seconds =       0.06 minutes
	system time =       0.04 seconds =       0.00 minutes
	total time  =          4 seconds =       0.07 minutes
Total time:
	user time   =       3.76 seconds =       0.06 minutes
	system time =       0.04 seconds =       0.00 minutes
	total time  =          4 seconds =       0.07 minutes

*** tstart() called on cx1-1-4-3.cx1.hpc.ic.ac.uk
*** at Tue Jul  5 16:28:16 2016


         ------------------------------------------------------------
                                   SCF GRAD                          
                          Rob Parrish, Justin Turney,                
                       Andy Simmonett, and Alex Sokolov              
         ------------------------------------------------------------

  ==> Geometry <==

    Molecular point group: c1
    Full point group: C1

    Geometry (in Angstrom), charge = 0, multiplicity = 1:

       Center              X                  Y                   Z               Mass       
    ------------   -----------------  -----------------  -----------------  -----------------
           O         -0.291376735528     1.324133566319    -0.000027224983    15.994914619560
           C         -0.449376735528     0.146133566319    -0.000027224983    12.000000000000
           C         -1.783376735528    -0.548866433681    -0.000027224983    12.000000000000
           O          0.550623264472    -0.724866433681    -0.000027224983    15.994914619560
           H         -1.864376735528    -1.184866433681    -0.874027224983     1.007825032070
           H         -2.574376735528     0.185133566319    -0.001027224983     1.007825032070
           H         -1.865376735528    -1.182866433681     0.875972775017     1.007825032070
           C          1.863623264472    -0.193866433681    -0.000027224983    12.000000000000
           H          2.029623264472     0.409133566319    -0.881027224983     1.007825032070
           H          2.526623264472    -1.044866433681     0.001972775017     1.007825032070
           H          2.028623264472     0.411133566319     0.879972775017     1.007825032070

  Nuclear repulsion =  183.331884191452644

  ==> Basis Set <==

  Basis Set: 6-31G*
    Number of shells: 42
    Number of basis function: 87
    Number of Cartesian functions: 87
    Spherical Harmonics?: false
    Max angular momentum: 2

  ==> DFJKGrad: Density-Fitted SCF Gradients <==

    Gradient:                    1
    J tasked:                  Yes
    K tasked:                  Yes
    wK tasked:                  No
    OpenMP threads:              1
    Integrals threads:           1
    Memory (MB):              1430
    Schwarz Cutoff:          0E+00
    Fitting Condition:       1E-12

   => Auxiliary Basis Set <=

  Basis Set: 
    Number of shells: 174
    Number of basis function: 555
    Number of Cartesian functions: 555
    Spherical Harmonics?: false
    Max angular momentum: 3


  -Total Gradient:
     Atom            X                  Y                   Z
    ------   -----------------  -----------------  -----------------
       1        0.000004274382     0.000944599685    -0.000000734886
       2        0.000255996583    -0.001074774495     0.000014847967
       3       -0.000351227004     0.000697472786    -0.000317724967
       4       -0.000182697889     0.000064563344     0.000014621403
       5        0.000035435894    -0.000061432843    -0.000044941229
       6        0.000286554764    -0.000311214739     0.000025885083
       7       -0.000016161137    -0.000249124737     0.000332722712
       8       -0.000241075967    -0.000219290160    -0.000213566872
       9        0.000046042324     0.000083326085     0.000087835551
      10        0.000077542670     0.000045046632     0.000078825016
      11        0.000085315379     0.000080828440     0.000022230223


*** tstop() called on cx1-1-4-3.cx1.hpc.ic.ac.uk at Tue Jul  5 16:28:21 2016
Module time:
	user time   =       4.73 seconds =       0.08 minutes
	system time =       0.03 seconds =       0.00 minutes
	total time  =          5 seconds =       0.08 minutes
Total time:
	user time   =       8.50 seconds =       0.14 minutes
	system time =       0.07 seconds =       0.00 minutes
	total time  =          9 seconds =       0.15 minutes
CURRENT ENERGY: -266.8364414966

			-----------------------------------------
			 OPTKING 2.0: for geometry optimizations 
			  - R.A. King,  Bethel University        
			-----------------------------------------

	Internal coordinates to be generated automatically.
	Detected frag with atoms:  1 2 3 4 5 6 7 8 9 10 11
	---Fragment 1 Bond Connectivity---
	 1 : 2
	 2 : 1 3 4
	 3 : 2 5 6 7
	 4 : 2 8
	 5 : 3
	 6 : 3
	 7 : 3
	 8 : 4 9 10 11
	 9 : 8
	 10 : 8
	 11 : 8

	---Fragment 1 Geometry and Gradient---
	 O          -0.5506222316        2.5022498037       -0.0000514478
	 C          -0.8491989606        0.2761524192       -0.0000514478
	 C          -3.3700936219       -1.0372072432       -0.0000514478
	 O           1.0405271722       -1.3697990426       -0.0000514478
	 H          -3.5231614387       -2.2390730637       -1.6516720879
	 H          -4.8648669930        0.3498517383       -0.0019411739
	 H          -3.5250511648       -2.2352936114        1.6553486446
	 C           3.5217375847       -0.3663544660       -0.0000514478
	 H           3.8354321228        0.7731503921       -1.6649001708
	 H           4.7746260108       -1.9745114051        0.0037280045
	 H           3.8335423967        0.7769298444        1.6629075492
	             0.0000042744        0.0009445997       -0.0000007349
	             0.0002559966       -0.0010747745        0.0000148480
	            -0.0003512270        0.0006974728       -0.0003177250
	            -0.0001826979        0.0000645633        0.0000146214
	             0.0000354359       -0.0000614328       -0.0000449412
	             0.0002865548       -0.0003112147        0.0000258851
	            -0.0000161611       -0.0002491247        0.0003327227
	            -0.0002410760       -0.0002192902       -0.0002135669
	             0.0000460423        0.0000833261        0.0000878356
	             0.0000775427        0.0000450466        0.0000788250
	             0.0000853154        0.0000808284        0.0000222302

	Previous optimization step data not found.  Starting new optimization.

	---Fragment 1 Intrafragment Coordinates---
	 - Coordinate -           - BOHR/RAD -       - ANG/DEG -
	 R(1,2)           =         2.246032	       1.188549
	 R(2,3)           =         2.842503	       1.504188
	 R(2,4)           =         2.506037	       1.326138
	 R(3,5)           =         2.048356	       1.083943
	 R(3,6)           =         2.039187	       1.079091
	 R(3,7)           =         2.049335	       1.084461
	 R(4,8)           =         2.676435	       1.416309
	 R(8,9)           =         2.041714	       1.080429
	 R(8,10)          =         2.038606	       1.078784
	 R(8,11)          =         2.041998	       1.080579
	 B(1,2,3)         =         2.184424	     125.158282
	 B(1,2,4)         =         2.154026	     123.416623
	 B(2,3,5)         =         1.914923	     109.717007
	 B(2,3,6)         =         1.913256	     109.621501
	 B(2,3,7)         =         1.914715	     109.705111
	 B(2,4,8)         =         2.040724	     116.924872
	 B(3,2,4)         =         1.944735	     111.425094
	 B(4,8,9)         =         1.930164	     110.590231
	 B(4,8,10)        =         1.848343	     105.902274
	 B(4,8,11)        =         1.929936	     110.577206
	 B(5,3,6)         =         1.921525	     110.095268
	 B(5,3,7)         =         1.878263	     107.616563
	 B(6,3,7)         =         1.920887	     110.058725
	 B(9,8,10)        =         1.925543	     110.325507
	 B(9,8,11)        =         1.905108	     109.154647
	 B(10,8,11)       =         1.924434	     110.261932
	 D(1,2,3,5)       =         2.113078	     121.070443
	 D(1,2,3,6)       =         0.000984	       0.056370
	 D(1,2,3,7)       =        -2.110191	    -120.905047
	 D(1,2,4,8)       =         0.000000	       0.000000
	 D(2,4,8,9)       =        -1.057358	     -60.582160
	 D(2,4,8,10)      =         3.139665	     179.889550
	 D(2,4,8,11)      =         1.054953	      60.444375
	 D(3,2,4,8)       =         3.141593	     180.000000
	 D(4,2,3,5)       =        -1.028515	     -58.929557
	 D(4,2,3,6)       =        -3.140609	    -179.943630
	 D(4,2,3,7)       =         1.031402	      59.094953

	Current energy   :      -266.8364414966

	Generating empirical Hessian (Schlegel '84) for each fragment.
	Taking RFO optimization step.
	Going to follow RFO solution 1.
	Using RFO vector 1.
	Norm of target step-size    0.00570
	Projected energy change by RFO approximation:        -0.0000028448

	Back-transformation to cartesian coordinates...
	Successfully converged to displaced geometry.

	--- Internal Coordinate Step in ANG or DEG, aJ/ANG or AJ/DEG ---
	 ---------------------------------------------------------------------------
	   Coordinate                Previous        Force       Change         New 
	   ----------                --------       ------       ------       ------
	    1 R(1,2)          =      1.188549    -0.007718    -0.000447     1.188101
	    2 R(2,3)          =      1.504188    -0.000044    -0.000009     1.504179
	    3 R(2,4)          =      1.326138     0.001630     0.000173     1.326311
	    4 R(3,5)          =      1.083943    -0.000574    -0.000104     1.083840
	    5 R(3,6)          =      1.079091     0.003475     0.000618     1.079710
	    6 R(3,7)          =      1.084461    -0.003424    -0.000620     1.083841
	    7 R(4,8)          =      1.416309     0.000277     0.000041     1.416350
	    8 R(8,9)          =      1.080429     0.000149     0.000027     1.080455
	    9 R(8,10)         =      1.078784    -0.000101    -0.000018     1.078766
	   10 R(8,11)         =      1.080579    -0.000629    -0.000113     1.080466
	   11 B(1,2,3)        =    125.158282     0.000010     0.029335   125.187617
	   12 B(1,2,4)        =    123.416623    -0.000011    -0.033122   123.383502
	   13 B(2,3,5)        =    109.717007     0.000004     0.017884   109.734891
	   14 B(2,3,6)        =    109.621501    -0.000005    -0.031546   109.589955
	   15 B(2,3,7)        =    109.705111     0.000002     0.016305   109.721416
	   16 B(2,4,8)        =    116.924872     0.000007     0.020562   116.945434
	   17 B(3,2,4)        =    111.425094     0.000001     0.003780   111.428874
	   18 B(4,8,9)        =    110.590231    -0.000007    -0.035804   110.554426
	   19 B(4,8,10)       =    105.902274    -0.000009    -0.051486   105.850788
	   20 B(4,8,11)       =    110.577206    -0.000004    -0.009448   110.567758
	   21 B(5,3,6)        =    110.095268    -0.000002    -0.017641   110.077627
	   22 B(5,3,7)        =    107.616563    -0.000000     0.012709   107.629272
	   23 B(6,3,7)        =    110.058725     0.000001     0.003405   110.062131
	   24 B(9,8,10)       =    110.325507     0.000000    -0.017700   110.307807
	   25 B(9,8,11)       =    109.154647     0.000011     0.066059   109.220706
	   26 B(10,8,11)      =    110.261932     0.000009     0.044706   110.306638
	   27 D(1,2,3,5)      =    121.070443    -0.000000    -0.006374   121.064068
	   28 D(1,2,3,6)      =      0.056370     0.000000     0.024086     0.080456
	   29 D(1,2,3,7)      =   -120.905047     0.000000     0.029525  -120.875522
	   30 D(1,2,4,8)      =      0.000000     0.000000     0.009037     0.009037
	   31 D(2,4,8,9)      =    -60.582160    -0.000001     0.114159   -60.468002
	   32 D(2,4,8,10)     =    179.889550     0.000001     0.185119   180.074669
	   33 D(2,4,8,11)     =     60.444375     0.000000     0.167191    60.611566
	   34 D(3,2,4,8)      =    180.000000     0.000000     0.038514   180.038514
	   35 D(4,2,3,5)      =    -58.929557    -0.000001    -0.036490   -58.966047
	   36 D(4,2,3,6)      =   -179.943630     0.000000    -0.006029  -179.949660
	   37 D(4,2,3,7)      =     59.094953     0.000000    -0.000591    59.094362
	 ---------------------------------------------------------------------------

  ==> Convergence Check <==

  Measures of convergence in internal coordinates in au.
  Criteria marked as inactive (o), active & met (*), and active & unmet ( ).
  --------------------------------------------------------------------------------------------- ~
   Step     Total Energy     Delta E     MAX Force     RMS Force      MAX Disp      RMS Disp    ~
  --------------------------------------------------------------------------------------------- ~
    Convergence Criteria    1.00e-06 *    3.00e-04 *             o    1.20e-03 *             o  ~
  --------------------------------------------------------------------------------------------- ~
      1    -266.83644150   -2.67e+02      9.37e-04      1.95e-04 o    3.23e-03      9.38e-04 o  ~
  ---------------------------------------------------------------------------------------------

	Writing optimization data to binary file.
	Structure for next step:
	Cartesian Geometry (in Angstrom)
	    O    -0.2913549200   1.3237349168  -0.0015681663
	    C    -0.4495192939   0.1462086519  -0.0006944398
	    C    -1.7832878087  -0.5492162997   0.0001414260
	    O     0.5509492541  -0.7245165658   0.0003124270
	    H    -1.8646552743  -1.1858082700  -0.8732647244
	    H    -2.5745731250   0.1853837210  -0.0016025411
	    H    -1.8653018874  -1.1819472905   0.8762901020
	    C     1.8639720837  -0.1934624950   0.0005184467
	    H     2.0290462847   0.4104683609  -0.8800504685
	    H     2.5262218567  -1.0450260037   0.0000159097
	    H     2.0293587522   0.4096503200   0.8816025540
			--------------------------
			 OPTKING Finished Execution 
			--------------------------

    Structure for next step:
    Molecular point group: c1
    Full point group: C1

    Geometry (in Angstrom), charge = 0, multiplicity = 1:

    O           -0.291469129565     1.323725516954    -0.001331986095
    C           -0.449633491368     0.146199342013    -0.000458259660
    C           -1.783401904289    -0.549225556552     0.000377606044
    O            0.550834980274    -0.724525809256     0.000548607013
    H           -1.864769363668    -1.185817478207    -0.873028477619
    H           -2.574687160194     0.185374408095    -0.001366360847
    H           -1.865415976718    -1.181956499027     0.876526215173
    C            1.863857709518    -0.193471778958     0.000754626736
    H            2.028931897907     0.410459030833    -0.879814221174
    H            2.526107432030    -1.045035222642     0.000252089801
    H            2.029244365441     0.409640989992     0.881838666709

gradient() will perform analytic gradient computation.

*** tstart() called on cx1-1-4-3.cx1.hpc.ic.ac.uk
*** at Tue Jul  5 16:28:21 2016


         ---------------------------------------------------------
                                   SCF
            by Justin Turney, Rob Parrish, and Andy Simmonett
                              RHF Reference
                        1 Threads,   2000 MiB Core
         ---------------------------------------------------------

  ==> Geometry <==

    Molecular point group: c1
    Full point group: C1

    Geometry (in Angstrom), charge = 0, multiplicity = 1:

       Center              X                  Y                   Z               Mass       
    ------------   -----------------  -----------------  -----------------  -----------------
           O         -0.291469129565     1.323725516954    -0.001331986095    15.994914619560
           C         -0.449633491368     0.146199342013    -0.000458259660    12.000000000000
           C         -1.783401904289    -0.549225556552     0.000377606044    12.000000000000
           O          0.550834980274    -0.724525809256     0.000548607013    15.994914619560
           H         -1.864769363668    -1.185817478207    -0.873028477619     1.007825032070
           H         -2.574687160194     0.185374408095    -0.001366360847     1.007825032070
           H         -1.865415976718    -1.181956499027     0.876526215173     1.007825032070
           C          1.863857709518    -0.193471778958     0.000754626736    12.000000000000
           H          2.028931897907     0.410459030833    -0.879814221174     1.007825032070
           H          2.526107432030    -1.045035222642     0.000252089801     1.007825032070
           H          2.029244365441     0.409640989992     0.881838666709     1.007825032070

  Running in c1 symmetry.

  Rotational constants: A =      0.35094  B =      0.14032  C =      0.10408 [cm^-1]
  Rotational constants: A =  10521.01326  B =   4206.58465  C =   3120.34455 [MHz]
  Nuclear repulsion =  183.340155559809858

  Charge       = 0
  Multiplicity = 1
  Electrons    = 40
  Nalpha       = 20
  Nbeta        = 20

  ==> Algorithm <==

  SCF Algorithm Type is DF.
  DIIS enabled.
  MOM disabled.
  Fractional occupation disabled.
  Guess Type is READ.
  Energy threshold   = 1.00e-08
  Density threshold  = 1.00e-08
  Integral threshold = 0.00e+00

  ==> Primary Basis <==

  Basis Set: 6-31G*
    Number of shells: 42
    Number of basis function: 87
    Number of Cartesian functions: 87
    Spherical Harmonics?: false
    Max angular momentum: 2

  ==> Pre-Iterations <==

   -------------------------------------------------------
    Irrep   Nso     Nmo     Nalpha   Nbeta   Ndocc  Nsocc
   -------------------------------------------------------
     A         87      87       0       0       0       0
   -------------------------------------------------------
    Total      87      87      20      20      20       0
   -------------------------------------------------------

 OEINTS: Overlap, kinetic, potential, dipole, and quadrupole integrals
         stored in file 35.

  ==> Integral Setup <==

  ==> DFJK: Density-Fitted J/K Matrices <==

    J tasked:                  Yes
    K tasked:                  Yes
    wK tasked:                  No
    OpenMP threads:              1
    Integrals threads:           1
    Memory (MB):              1430
    Algorithm:                Core
    Integral Cache:           NONE
    Schwarz Cutoff:          1E-12
    Fitting Condition:       1E-12

   => Auxiliary Basis Set <=

  Basis Set: 
    Number of shells: 174
    Number of basis function: 555
    Number of Cartesian functions: 555
    Spherical Harmonics?: false
    Max angular momentum: 3

  Minimum eigenvalue in the overlap matrix is 3.9492407740E-03.
  Using Symmetric Orthogonalization.
  SCF Guess: Reading in previously saved MOs, projecting if necessary.

  Using orbitals from previous SCF, no projection.
  Recomputing DOCC and SOCC from number of alpha and beta electrons from previous calculation.
              A 
    DOCC [    20 ]

  ==> Iterations <==

                           Total Energy        Delta E     RMS |[F,P]|

   @DF-RHF iter   0:  -266.83693264554142   -2.66837e+02   3.91204e-05 
   @DF-RHF iter   1:  -266.83644249278143    4.90153e-04   7.28663e-06 
   @DF-RHF iter   2:  -266.83644275051688   -2.57735e-07   3.76784e-06 DIIS
   @DF-RHF iter   3:  -266.83644279991779   -4.94009e-08   1.44327e-06 DIIS
   @DF-RHF iter   4:  -266.83644281248951   -1.25717e-08   3.16556e-07 DIIS
   @DF-RHF iter   5:  -266.83644281318038   -6.90875e-10   1.36733e-07 DIIS
   @DF-RHF iter   6:  -266.83644281332352   -1.43132e-10   5.11977e-08 DIIS
   @DF-RHF iter   7:  -266.83644281335296   -2.94449e-11   1.77730e-08 DIIS
   @DF-RHF iter   8:  -266.83644281335705   -4.09273e-12   4.97386e-09 DIIS

  ==> Post-Iterations <==

    Orbital Energies (a.u.)
    -----------------------

    Doubly Occupied:                                                      

       1A    -20.605937     2A    -20.546509     3A    -11.376466  
       4A    -11.282158     5A    -11.234776     6A     -1.471345  
       7A     -1.364510     8A     -1.036004     9A     -0.953001  
      10A     -0.778278    11A     -0.695830    12A     -0.681232  
      13A     -0.677229    14A     -0.595179    15A     -0.592015  
      16A     -0.560787    17A     -0.524666    18A     -0.524010  
      19A     -0.458011    20A     -0.442406  

    Virtual:                                                              

      21A      0.197258    22A      0.249415    23A      0.265459  
      24A      0.298797    25A      0.312401    26A      0.314482  
      27A      0.337721    28A      0.349737    29A      0.411608  
      30A      0.501433    31A      0.547463    32A      0.722342  
      33A      0.729467    34A      0.755454    35A      0.775668  
      36A      0.812389    37A      0.814105    38A      0.855704  
      39A      0.921087    40A      0.986147    41A      1.041215  
      42A      1.102858    43A      1.121797    44A      1.122771  
      45A      1.134655    46A      1.188368    47A      1.197914  
      48A      1.212795    49A      1.230324    50A      1.281179  
      51A      1.356541    52A      1.370167    53A      1.381777  
      54A      1.497334    55A      1.640052    56A      1.661991  
      57A      1.730684    58A      1.806475    59A      1.823165  
      60A      1.924155    61A      1.996962    62A      2.060308  
      63A      2.099597    64A      2.151558    65A      2.205148  
      66A      2.292921    67A      2.361554    68A      2.393141  
      69A      2.438262    70A      2.468018    71A      2.530443  
      72A      2.557611    73A      2.680972    74A      2.683493  
      75A      2.720723    76A      2.821921    77A      2.949905  
      78A      3.059361    79A      3.129070    80A      3.340470  
      81A      3.399817    82A      3.544962    83A      4.406694  
      84A      4.511665    85A      4.597085    86A      4.692613  
      87A      4.883597  

    Final Occupation by Irrep:
              A 
    DOCC [    20 ]

  Energy converged.

  @DF-RHF Final Energy:  -266.83644281335705

   => Energetics <=

    Nuclear Repulsion Energy =            183.3401555598098582
    One-Electron Energy =                -727.5524970038909487
    Two-Electron Energy =                 277.3758986307246914
    DFT Exchange-Correlation Energy =       0.0000000000000000
    Empirical Dispersion Energy =           0.0000000000000000
    PCM Polarization Energy =               0.0000000000000000
    EFP Energy =                            0.0000000000000000
    Total Energy =                       -266.8364428133563706

    Alert: EFP and PCM quantities not currently incorporated into SCF psivars.

Properties will be evaluated at   0.000000,   0.000000,   0.000000 Bohr
  ==> Properties <==


Properties computed using the SCF density matrix

  Nuclear Dipole Moment: (a.u.)
     X:     0.2632      Y:    -2.2539      Z:     0.0041

  Electronic Dipole Moment: (a.u.)
     X:    -0.1126      Y:     1.4863      Z:    -0.0032

  Dipole Moment: (a.u.)
     X:     0.1506      Y:    -0.7677      Z:     0.0010     Total:     0.7823

  Dipole Moment: (Debye)
     X:     0.3828      Y:    -1.9512      Z:     0.0024     Total:     1.9884


  Saving occupied orbitals to File 180.

*** tstop() called on cx1-1-4-3.cx1.hpc.ic.ac.uk at Tue Jul  5 16:28:25 2016
Module time:
	user time   =       3.23 seconds =       0.05 minutes
	system time =       0.02 seconds =       0.00 minutes
	total time  =          4 seconds =       0.07 minutes
Total time:
	user time   =      11.80 seconds =       0.20 minutes
	system time =       0.11 seconds =       0.00 minutes
	total time  =         13 seconds =       0.22 minutes

*** tstart() called on cx1-1-4-3.cx1.hpc.ic.ac.uk
*** at Tue Jul  5 16:28:25 2016


         ------------------------------------------------------------
                                   SCF GRAD                          
                          Rob Parrish, Justin Turney,                
                       Andy Simmonett, and Alex Sokolov              
         ------------------------------------------------------------

  ==> Geometry <==

    Molecular point group: c1
    Full point group: C1

    Geometry (in Angstrom), charge = 0, multiplicity = 1:

       Center              X                  Y                   Z               Mass       
    ------------   -----------------  -----------------  -----------------  -----------------
           O         -0.291469129565     1.323725516954    -0.001331986095    15.994914619560
           C         -0.449633491368     0.146199342013    -0.000458259660    12.000000000000
           C         -1.783401904289    -0.549225556552     0.000377606044    12.000000000000
           O          0.550834980274    -0.724525809256     0.000548607013    15.994914619560
           H         -1.864769363668    -1.185817478207    -0.873028477619     1.007825032070
           H         -2.574687160194     0.185374408095    -0.001366360847     1.007825032070
           H         -1.865415976718    -1.181956499027     0.876526215173     1.007825032070
           C          1.863857709518    -0.193471778958     0.000754626736    12.000000000000
           H          2.028931897907     0.410459030833    -0.879814221174     1.007825032070
           H          2.526107432030    -1.045035222642     0.000252089801     1.007825032070
           H          2.029244365441     0.409640989992     0.881838666709     1.007825032070

  Nuclear repulsion =  183.340155559809830

  ==> Basis Set <==

  Basis Set: 6-31G*
    Number of shells: 42
    Number of basis function: 87
    Number of Cartesian functions: 87
    Spherical Harmonics?: false
    Max angular momentum: 2

  ==> DFJKGrad: Density-Fitted SCF Gradients <==

    Gradient:                    1
    J tasked:                  Yes
    K tasked:                  Yes
    wK tasked:                  No
    OpenMP threads:              1
    Integrals threads:           1
    Memory (MB):              1430
    Schwarz Cutoff:          0E+00
    Fitting Condition:       1E-12

   => Auxiliary Basis Set <=

  Basis Set: 
    Number of shells: 174
    Number of basis function: 555
    Number of Cartesian functions: 555
    Spherical Harmonics?: false
    Max angular momentum: 3


  -Total Gradient:
     Atom            X                  Y                   Z
    ------   -----------------  -----------------  -----------------
       1        0.000041000314     0.000066917101     0.000020759034
       2        0.000030654129    -0.000247956625    -0.000069205871
       3       -0.000013896304     0.000041318041     0.000019089825
       4        0.000003365525     0.000170774688    -0.000005212360
       5        0.000011004254    -0.000015987310     0.000012454678
       6       -0.000009406565     0.000011963408     0.000010863442
       7       -0.000000389552    -0.000005214099    -0.000017683131
       8       -0.000023361353    -0.000021215374     0.000043001187
       9       -0.000023395842     0.000003904646    -0.000015684272
      10       -0.000025006618    -0.000011704076    -0.000005288087
      11        0.000009432011     0.000007199603     0.000006905555


*** tstop() called on cx1-1-4-3.cx1.hpc.ic.ac.uk at Tue Jul  5 16:28:29 2016
Module time:
	user time   =       4.75 seconds =       0.08 minutes
	system time =       0.03 seconds =       0.00 minutes
	total time  =          4 seconds =       0.07 minutes
Total time:
	user time   =      16.55 seconds =       0.28 minutes
	system time =       0.14 seconds =       0.00 minutes
	total time  =         17 seconds =       0.28 minutes
CURRENT ENERGY: -266.8364428134

			-----------------------------------------
			 OPTKING 2.0: for geometry optimizations 
			  - R.A. King,  Bethel University        
			-----------------------------------------

	Previous internal coordinate definitions found.
	---Fragment 1 Geometry and Gradient---
	 O          -0.5507968311        2.5014787022       -0.0025170889
	 C          -0.8496841589        0.2762767172       -0.0008659853
	 C          -3.3701411840       -1.0378858871        0.0007135720
	 O           1.0409272571       -1.3691553557        0.0010367170
	 H          -3.5239033983       -2.2408702774       -1.6497847289
	 H          -4.8654536106        0.3503068633       -0.0025820478
	 H          -3.5251253199       -2.2335740841        1.6563944950
	 C           3.5221806217       -0.3656086767        0.0014260379
	 H           3.8341256293        0.7756551570       -1.6626079258
	 H           4.7736512288       -1.9748303700        0.0004763807
	 H           3.8347161074        0.7741092839        1.6664335735
	             0.0000410003        0.0000669171        0.0000207590
	             0.0000306541       -0.0002479566       -0.0000692059
	            -0.0000138963        0.0000413180        0.0000190898
	             0.0000033655        0.0001707747       -0.0000052124
	             0.0000110043       -0.0000159873        0.0000124547
	            -0.0000094066        0.0000119634        0.0000108634
	            -0.0000003896       -0.0000052141       -0.0000176831
	            -0.0000233614       -0.0000212154        0.0000430012
	            -0.0000233958        0.0000039046       -0.0000156843
	            -0.0000250066       -0.0000117041       -0.0000052881
	             0.0000094320        0.0000071996        0.0000069056

	---Fragment 1 Intrafragment Coordinates---
	 - Coordinate -           - BOHR/RAD -       - ANG/DEG -
	 R(1,2)           =         2.245186	       1.188101
	 R(2,3)           =         2.842486	       1.504179
	 R(2,4)           =         2.506364	       1.326311
	 R(3,5)           =         2.048160	       1.083840
	 R(3,6)           =         2.040355	       1.079710
	 R(3,7)           =         2.048163	       1.083841
	 R(4,8)           =         2.676513	       1.416350
	 R(8,9)           =         2.041764	       1.080455
	 R(8,10)          =         2.038572	       1.078766
	 R(8,11)          =         2.041785	       1.080466
	 B(1,2,3)         =         2.184936	     125.187617
	 B(1,2,4)         =         2.153448	     123.383502
	 B(2,3,5)         =         1.915235	     109.734891
	 B(2,3,6)         =         1.912706	     109.589955
	 B(2,3,7)         =         1.915000	     109.721416
	 B(2,4,8)         =         2.041083	     116.945434
	 B(3,2,4)         =         1.944801	     111.428874
	 B(4,8,9)         =         1.929539	     110.554426
	 B(4,8,10)        =         1.847445	     105.850788
	 B(4,8,11)        =         1.929771	     110.567758
	 B(5,3,6)         =         1.921217	     110.077627
	 B(5,3,7)         =         1.878485	     107.629272
	 B(6,3,7)         =         1.920947	     110.062131
	 B(9,8,10)        =         1.925234	     110.307807
	 B(9,8,11)        =         1.906261	     109.220706
	 B(10,8,11)       =         1.925214	     110.306638
	 D(1,2,3,5)       =         2.112967	     121.064068
	 D(1,2,3,6)       =         0.001404	       0.080456
	 D(1,2,3,7)       =        -2.109676	    -120.875522
	 D(1,2,4,8)       =         0.000158	       0.009037
	 D(2,4,8,9)       =        -1.055366	     -60.468002
	 D(2,4,8,10)      =        -3.140289	    -179.925331
	 D(2,4,8,11)      =         1.057871	      60.611566
	 D(3,2,4,8)       =        -3.140920	    -179.961486
	 D(4,2,3,5)       =        -1.029152	     -58.966047
	 D(4,2,3,6)       =        -3.140714	    -179.949660
	 D(4,2,3,7)       =         1.031391	      59.094362

	Current energy   :      -266.8364428134

	Energy change for the previous step:
		Projected    :        -0.0000028448
		Actual       :        -0.0000013168

	Performing BFGS update.
	Previous computed or guess Hessian on step 1.
	Steps to be used in Hessian update: 1
	Taking RFO optimization step.
	Going to follow RFO solution 1.
	Using RFO vector 1.
	Norm of target step-size    0.00574
	Projected energy change by RFO approximation:        -0.0000008836

	Back-transformation to cartesian coordinates...
	Successfully converged to displaced geometry.

	--- Internal Coordinate Step in ANG or DEG, aJ/ANG or AJ/DEG ---
	 ---------------------------------------------------------------------------
	   Coordinate                Previous        Force       Change         New 
	   ----------                --------       ------       ------       ------
	    1 R(1,2)          =      1.188101    -0.000591    -0.000088     1.188013
	    2 R(2,3)          =      1.504179     0.000029     0.000005     1.504184
	    3 R(2,4)          =      1.326311     0.001172     0.000141     1.326452
	    4 R(3,5)          =      1.083840     0.000012    -0.000011     1.083829
	    5 R(3,6)          =      1.079710    -0.000124     0.000056     1.079765
	    6 R(3,7)          =      1.083841     0.000092    -0.000061     1.083780
	    7 R(4,8)          =      1.416350     0.000543     0.000083     1.416433
	    8 R(8,9)          =      1.080455    -0.000094    -0.000013     1.080442
	    9 R(8,10)         =      1.078766     0.000050     0.000006     1.078772
	   10 R(8,11)         =      1.080466    -0.000091    -0.000030     1.080436
	   11 B(1,2,3)        =    125.187617     0.000000     0.004671   125.192288
	   12 B(1,2,4)        =    123.383502     0.000006     0.012583   123.396085
	   13 B(2,3,5)        =    109.734891     0.000000     0.004056   109.738946
	   14 B(2,3,6)        =    109.589955    -0.000000    -0.006650   109.583305
	   15 B(2,3,7)        =    109.721416    -0.000000     0.001907   109.723324
	   16 B(2,4,8)        =    116.945434    -0.000002    -0.003398   116.942036
	   17 B(3,2,4)        =    111.428874    -0.000006    -0.017466   111.411408
	   18 B(4,8,9)        =    110.554426     0.000003     0.009156   110.563583
	   19 B(4,8,10)       =    105.850788     0.000003     0.007062   105.857850
	   20 B(4,8,11)       =    110.567758    -0.000002    -0.012182   110.555576
	   21 B(5,3,6)        =    110.077627    -0.000001    -0.010704   110.066923
	   22 B(5,3,7)        =    107.629272     0.000001     0.011364   107.640636
	   23 B(6,3,7)        =    110.062131     0.000000     0.000366   110.062496
	   24 B(9,8,10)       =    110.307807    -0.000002    -0.006782   110.301026
	   25 B(9,8,11)       =    109.220706    -0.000001     0.003475   109.224180
	   26 B(10,8,11)      =    110.306638    -0.000001    -0.000813   110.305825
	   27 D(1,2,3,5)      =    121.064068    -0.000000    -0.105368   120.958701
	   28 D(1,2,3,6)      =      0.080456    -0.000000    -0.090498    -0.010042
	   29 D(1,2,3,7)      =   -120.875522    -0.000000    -0.087952  -120.963474
	   30 D(1,2,4,8)      =      0.009037     0.000000     0.058356     0.067393
	   31 D(2,4,8,9)      =    -60.468002     0.000000    -0.096105   -60.564106
	   32 D(2,4,8,10)     =   -179.925331    -0.000000    -0.097095  -180.022426
	   33 D(2,4,8,11)     =     60.611566    -0.000000    -0.093744    60.517822
	   34 D(3,2,4,8)      =   -179.961486    -0.000000    -0.133452  -180.094938
	   35 D(4,2,3,5)      =    -58.966047     0.000000     0.090588   -58.875459
	   36 D(4,2,3,6)      =   -179.949660     0.000000     0.105458  -179.844202
	   37 D(4,2,3,7)      =     59.094362     0.000000     0.108004    59.202366
	 ---------------------------------------------------------------------------

  ==> Convergence Check <==

  Measures of convergence in internal coordinates in au.
  Criteria marked as inactive (o), active & met (*), and active & unmet ( ).
  ---------------------------------------------------------------------------------------------
   Step     Total Energy     Delta E     MAX Force     RMS Force      MAX Disp      RMS Disp   
  ---------------------------------------------------------------------------------------------
    Convergence Criteria    1.00e-06 *    3.00e-04 *             o    1.20e-03 *             o
  ---------------------------------------------------------------------------------------------
      2    -266.83644281   -1.32e-06      1.42e-04 *    3.70e-05 o    2.33e-03      9.44e-04 o  ~
  ---------------------------------------------------------------------------------------------

	Writing optimization data to binary file.
	Structure for next step:
	Cartesian Geometry (in Angstrom)
	    O    -0.2916834059   1.3238495542  -0.0000775468
	    C    -0.4497102953   0.1463949058   0.0016154747
	    C    -1.7833498885  -0.5492865277   0.0003586735
	    O     0.5507653307  -0.7245374762   0.0013268035
	    H    -1.8635932902  -1.1853362761  -0.8735330189
	    H    -2.5747279707   0.1852930736  -0.0021388518
	    H    -1.8664695723  -1.1823461676   0.8760903427
	    C     1.8638939342  -0.1935245516   0.0003358614
	    H     2.0288040320   0.4093182180  -0.8809933558
	    H     2.5262059944  -1.0450477564   0.0006514661
	    H     2.0294645038   0.4105897638   0.8806626579
			--------------------------
			 OPTKING Finished Execution 
			--------------------------

    Structure for next step:
    Molecular point group: c1
    Full point group: C1

    Geometry (in Angstrom), charge = 0, multiplicity = 1:

    O           -0.291627607322     1.323814561025    -0.000731909319
    C           -0.449654484641     0.146360002509     0.000961112091
    C           -1.783293976081    -0.549321377856    -0.000295689011
    O            0.550821064949    -0.724572312992     0.000672440943
    H           -1.863537371625    -1.185371077636    -0.874187314716
    H           -2.574671997790     0.185258167331    -0.002793214128
    H           -1.866413653454    -1.182380969433     0.875435913301
    C            1.863949568185    -0.193559428879    -0.000318501058
    H            2.028859653340     0.409283294613    -0.881647651018
    H            2.526261577748    -1.045082568694    -0.000002896393
    H            2.029520125101     0.410554840323     0.880008228153

gradient() will perform analytic gradient computation.

*** tstart() called on cx1-1-4-3.cx1.hpc.ic.ac.uk
*** at Tue Jul  5 16:28:30 2016


         ---------------------------------------------------------
                                   SCF
            by Justin Turney, Rob Parrish, and Andy Simmonett
                              RHF Reference
                        1 Threads,   2000 MiB Core
         ---------------------------------------------------------

  ==> Geometry <==

    Molecular point group: c1
    Full point group: C1

    Geometry (in Angstrom), charge = 0, multiplicity = 1:

       Center              X                  Y                   Z               Mass       
    ------------   -----------------  -----------------  -----------------  -----------------
           O         -0.291627607322     1.323814561025    -0.000731909319    15.994914619560
           C         -0.449654484641     0.146360002509     0.000961112091    12.000000000000
           C         -1.783293976081    -0.549321377856    -0.000295689011    12.000000000000
           O          0.550821064949    -0.724572312992     0.000672440943    15.994914619560
           H         -1.863537371625    -1.185371077636    -0.874187314716     1.007825032070
           H         -2.574671997790     0.185258167331    -0.002793214128     1.007825032070
           H         -1.866413653454    -1.182380969433     0.875435913301     1.007825032070
           C          1.863949568185    -0.193559428879    -0.000318501058    12.000000000000
           H          2.028859653340     0.409283294613    -0.881647651018     1.007825032070
           H          2.526261577748    -1.045082568694    -0.000002896393     1.007825032070
           H          2.029520125101     0.410554840323     0.880008228153     1.007825032070

  Running in c1 symmetry.

  Rotational constants: A =      0.35090  B =      0.14031  C =      0.10408 [cm^-1]
  Rotational constants: A =  10519.60165  B =   4206.50443  C =   3120.18189 [MHz]
  Nuclear repulsion =  183.336007561061450

  Charge       = 0
  Multiplicity = 1
  Electrons    = 40
  Nalpha       = 20
  Nbeta        = 20

  ==> Algorithm <==

  SCF Algorithm Type is DF.
  DIIS enabled.
  MOM disabled.
  Fractional occupation disabled.
  Guess Type is READ.
  Energy threshold   = 1.00e-08
  Density threshold  = 1.00e-08
  Integral threshold = 0.00e+00

  ==> Primary Basis <==

  Basis Set: 6-31G*
    Number of shells: 42
    Number of basis function: 87
    Number of Cartesian functions: 87
    Spherical Harmonics?: false
    Max angular momentum: 2

  ==> Pre-Iterations <==

   -------------------------------------------------------
    Irrep   Nso     Nmo     Nalpha   Nbeta   Ndocc  Nsocc
   -------------------------------------------------------
     A         87      87       0       0       0       0
   -------------------------------------------------------
    Total      87      87      20      20      20       0
   -------------------------------------------------------

 OEINTS: Overlap, kinetic, potential, dipole, and quadrupole integrals
         stored in file 35.

  ==> Integral Setup <==

  ==> DFJK: Density-Fitted J/K Matrices <==

    J tasked:                  Yes
    K tasked:                  Yes
    wK tasked:                  No
    OpenMP threads:              1
    Integrals threads:           1
    Memory (MB):              1430
    Algorithm:                Core
    Integral Cache:           NONE
    Schwarz Cutoff:          1E-12
    Fitting Condition:       1E-12

   => Auxiliary Basis Set <=

  Basis Set: 
    Number of shells: 174
    Number of basis function: 555
    Number of Cartesian functions: 555
    Spherical Harmonics?: false
    Max angular momentum: 3

  Minimum eigenvalue in the overlap matrix is 3.9485264067E-03.
  Using Symmetric Orthogonalization.
  SCF Guess: Reading in previously saved MOs, projecting if necessary.

  Using orbitals from previous SCF, no projection.
  Recomputing DOCC and SOCC from number of alpha and beta electrons from previous calculation.
              A 
    DOCC [    20 ]

  ==> Iterations <==

                           Total Energy        Delta E     RMS |[F,P]|

   @DF-RHF iter   0:  -266.83642664941976   -2.66836e+02   3.21217e-05 
   @DF-RHF iter   1:  -266.83644210032378   -1.54509e-05   5.44878e-06 
   @DF-RHF iter   2:  -266.83644230407492   -2.03751e-07   2.21017e-06 DIIS
   @DF-RHF iter   3:  -266.83644233188647   -2.78116e-08   1.37086e-06 DIIS
   @DF-RHF iter   4:  -266.83644233894233   -7.05586e-09   1.31971e-07 DIIS
   @DF-RHF iter   5:  -266.83644233909263   -1.50294e-10   5.41388e-08 DIIS
   @DF-RHF iter   6:  -266.83644233912048   -2.78533e-11   2.13090e-08 DIIS
   @DF-RHF iter   7:  -266.83644233912582   -5.34328e-12   8.96917e-09 DIIS

  ==> Post-Iterations <==

    Orbital Energies (a.u.)
    -----------------------

    Doubly Occupied:                                                      

       1A    -20.605919     2A    -20.546553     3A    -11.376472  
       4A    -11.282155     5A    -11.234760     6A     -1.471295  
       7A     -1.364559     8A     -1.035984     9A     -0.952975  
      10A     -0.778258    11A     -0.695819    12A     -0.681206  
      13A     -0.677228    14A     -0.595202    15A     -0.592033  
      16A     -0.560739    17A     -0.524697    18A     -0.524012  
      19A     -0.458037    20A     -0.442419  

    Virtual:                                                              

      21A      0.197265    22A      0.249417    23A      0.265458  
      24A      0.298789    25A      0.312396    26A      0.314494  
      27A      0.337714    28A      0.349745    29A      0.411615  
      30A      0.501388    31A      0.547441    32A      0.722349  
      33A      0.729464    34A      0.755459    35A      0.775614  
      36A      0.812363    37A      0.814064    38A      0.855708  
      39A      0.921090    40A      0.986235    41A      1.041227  
      42A      1.102808    43A      1.121775    44A      1.122809  
      45A      1.134706    46A      1.188342    47A      1.197924  
      48A      1.212802    49A      1.230335    50A      1.281153  
      51A      1.356598    52A      1.370159    53A      1.381784  
      54A      1.497259    55A      1.640095    56A      1.661992  
      57A      1.730727    58A      1.806461    59A      1.823123  
      60A      1.924098    61A      1.997069    62A      2.060273  
      63A      2.099538    64A      2.151502    65A      2.205095  
      66A      2.292920    67A      2.361427    68A      2.393021  
      69A      2.438275    70A      2.468014    71A      2.530454  
      72A      2.557647    73A      2.680962    74A      2.683486  
      75A      2.720799    76A      2.821812    77A      2.949889  
      78A      3.059396    79A      3.128978    80A      3.340518  
      81A      3.399877    82A      3.544867    83A      4.406674  
      84A      4.511588    85A      4.597231    86A      4.692592  
      87A      4.883589  

    Final Occupation by Irrep:
              A 
    DOCC [    20 ]

  Energy converged.

  @DF-RHF Final Energy:  -266.83644233912582

   => Energetics <=

    Nuclear Repulsion Energy =            183.3360075610614501
    One-Electron Energy =                -727.5442568045760936
    Two-Electron Energy =                 277.3718069043883361
    DFT Exchange-Correlation Energy =       0.0000000000000000
    Empirical Dispersion Energy =           0.0000000000000000
    PCM Polarization Energy =               0.0000000000000000
    EFP Energy =                            0.0000000000000000
    Total Energy =                       -266.8364423391262790

    Alert: EFP and PCM quantities not currently incorporated into SCF psivars.

Properties will be evaluated at   0.000000,   0.000000,   0.000000 Bohr
  ==> Properties <==


Properties computed using the SCF density matrix

  Nuclear Dipole Moment: (a.u.)
     X:     0.2638      Y:    -2.2543      Z:    -0.0030

  Electronic Dipole Moment: (a.u.)
     X:    -0.1129      Y:     1.4870      Z:     0.0037

  Dipole Moment: (a.u.)
     X:     0.1508      Y:    -0.7673      Z:     0.0007     Total:     0.7820

  Dipole Moment: (Debye)
     X:     0.3833      Y:    -1.9503      Z:     0.0019     Total:     1.9876


  Saving occupied orbitals to File 180.

*** tstop() called on cx1-1-4-3.cx1.hpc.ic.ac.uk at Tue Jul  5 16:28:33 2016
Module time:
	user time   =       3.19 seconds =       0.05 minutes
	system time =       0.03 seconds =       0.00 minutes
	total time  =          3 seconds =       0.05 minutes
Total time:
	user time   =      19.81 seconds =       0.33 minutes
	system time =       0.17 seconds =       0.00 minutes
	total time  =         21 seconds =       0.35 minutes

*** tstart() called on cx1-1-4-3.cx1.hpc.ic.ac.uk
*** at Tue Jul  5 16:28:33 2016


         ------------------------------------------------------------
                                   SCF GRAD                          
                          Rob Parrish, Justin Turney,                
                       Andy Simmonett, and Alex Sokolov              
         ------------------------------------------------------------

  ==> Geometry <==

    Molecular point group: c1
    Full point group: C1

    Geometry (in Angstrom), charge = 0, multiplicity = 1:

       Center              X                  Y                   Z               Mass       
    ------------   -----------------  -----------------  -----------------  -----------------
           O         -0.291627607322     1.323814561025    -0.000731909319    15.994914619560
           C         -0.449654484641     0.146360002509     0.000961112091    12.000000000000
           C         -1.783293976081    -0.549321377856    -0.000295689011    12.000000000000
           O          0.550821064949    -0.724572312992     0.000672440943    15.994914619560
           H         -1.863537371625    -1.185371077636    -0.874187314716     1.007825032070
           H         -2.574671997790     0.185258167331    -0.002793214128     1.007825032070
           H         -1.866413653454    -1.182380969433     0.875435913301     1.007825032070
           C          1.863949568185    -0.193559428879    -0.000318501058    12.000000000000
           H          2.028859653340     0.409283294613    -0.881647651018     1.007825032070
           H          2.526261577748    -1.045082568694    -0.000002896393     1.007825032070
           H          2.029520125101     0.410554840323     0.880008228153     1.007825032070

  Nuclear repulsion =  183.336007561061450

  ==> Basis Set <==

  Basis Set: 6-31G*
    Number of shells: 42
    Number of basis function: 87
    Number of Cartesian functions: 87
    Spherical Harmonics?: false
    Max angular momentum: 2

  ==> DFJKGrad: Density-Fitted SCF Gradients <==

    Gradient:                    1
    J tasked:                  Yes
    K tasked:                  Yes
    wK tasked:                  No
    OpenMP threads:              1
    Integrals threads:           1
    Memory (MB):              1430
    Schwarz Cutoff:          0E+00
    Fitting Condition:       1E-12

   => Auxiliary Basis Set <=

  Basis Set: 
    Number of shells: 174
    Number of basis function: 555
    Number of Cartesian functions: 555
    Spherical Harmonics?: false
    Max angular momentum: 3


  -Total Gradient:
     Atom            X                  Y                   Z
    ------   -----------------  -----------------  -----------------
       1       -0.000014019457    -0.000046248035    -0.000185821857
       2        0.000013138540     0.000011437983     0.000530285678
       3        0.000046766607    -0.000063092610    -0.000140839528
       4       -0.000019351060     0.000041761877    -0.000134033777
       5       -0.000036580570    -0.000017479544     0.000007806762
       6       -0.000028393207     0.000039657176    -0.000011741246
       7        0.000034354531     0.000045060938    -0.000040631411
       8        0.000025600589     0.000008389937    -0.000021654482
       9        0.000008101576    -0.000007763231    -0.000000219767
      10       -0.000006589627    -0.000002739650    -0.000005556551
      11       -0.000023027922    -0.000008984840     0.000002406178


*** tstop() called on cx1-1-4-3.cx1.hpc.ic.ac.uk at Tue Jul  5 16:28:38 2016
Module time:
	user time   =       4.98 seconds =       0.08 minutes
	system time =       0.04 seconds =       0.00 minutes
	total time  =          5 seconds =       0.08 minutes
Total time:
	user time   =      24.80 seconds =       0.41 minutes
	system time =       0.21 seconds =       0.00 minutes
	total time  =         26 seconds =       0.43 minutes
CURRENT ENERGY: -266.8364423391

			-----------------------------------------
			 OPTKING 2.0: for geometry optimizations 
			  - R.A. King,  Bethel University        
			-----------------------------------------

	Previous internal coordinate definitions found.
	---Fragment 1 Geometry and Gradient---
	 O          -0.5510963106        2.5016469711       -0.0013831082
	 C          -0.8497238304        0.2765803216        0.0018162386
	 C          -3.3699372292       -1.0380669631       -0.0005587713
	 O           1.0409009610       -1.3692432350        0.0012707292
	 H          -3.5215752708       -2.2400267026       -1.6519746137
	 H          -4.8654249578        0.3500872001       -0.0052784097
	 H          -3.5270106557       -2.2343762170        1.6543341230
	 C           3.5223542094       -0.3657743110       -0.0006018798
	 H           3.8339891069        0.7734333376       -1.6660726061
	 H           4.7739425220       -1.9749198411       -0.0000054734
	 H           3.8352372176        0.7758362107        1.6629745459
	            -0.0000140195       -0.0000462480       -0.0001858219
	             0.0000131385        0.0000114380        0.0005302857
	             0.0000467666       -0.0000630926       -0.0001408395
	            -0.0000193511        0.0000417619       -0.0001340338
	            -0.0000365806       -0.0000174795        0.0000078068
	            -0.0000283932        0.0000396572       -0.0000117412
	             0.0000343545        0.0000450609       -0.0000406314
	             0.0000256006        0.0000083899       -0.0000216545
	             0.0000081016       -0.0000077632       -0.0000002198
	            -0.0000065896       -0.0000027397       -0.0000055566
	            -0.0000230279       -0.0000089848        0.0000024062

	---Fragment 1 Intrafragment Coordinates---
	 - Coordinate -           - BOHR/RAD -       - ANG/DEG -
	 R(1,2)           =         2.245019	       1.188013
	 R(2,3)           =         2.842495	       1.504184
	 R(2,4)           =         2.506631	       1.326452
	 R(3,5)           =         2.048140	       1.083829
	 R(3,6)           =         2.040460	       1.079765
	 R(3,7)           =         2.048047	       1.083780
	 R(4,8)           =         2.676670	       1.416433
	 R(8,9)           =         2.041740	       1.080442
	 R(8,10)          =         2.038584	       1.078772
	 R(8,11)          =         2.041729	       1.080436
	 B(1,2,3)         =         2.185018	     125.192288
	 B(1,2,4)         =         2.153668	     123.396085
	 B(2,3,5)         =         1.915306	     109.738946
	 B(2,3,6)         =         1.912589	     109.583305
	 B(2,3,7)         =         1.915033	     109.723324
	 B(2,4,8)         =         2.041024	     116.942036
	 B(3,2,4)         =         1.944496	     111.411408
	 B(4,8,9)         =         1.929699	     110.563583
	 B(4,8,10)        =         1.847568	     105.857850
	 B(4,8,11)        =         1.929559	     110.555576
	 B(5,3,6)         =         1.921030	     110.066923
	 B(5,3,7)         =         1.878684	     107.640636
	 B(6,3,7)         =         1.920953	     110.062496
	 B(9,8,10)        =         1.925116	     110.301026
	 B(9,8,11)        =         1.906322	     109.224180
	 B(10,8,11)       =         1.925200	     110.305825
	 D(1,2,3,5)       =         2.111128	     120.958701
	 D(1,2,3,6)       =        -0.000175	      -0.010042
	 D(1,2,3,7)       =        -2.111211	    -120.963474
	 D(1,2,4,8)       =         0.001176	       0.067393
	 D(2,4,8,9)       =        -1.057043	     -60.564106
	 D(2,4,8,10)      =         3.141201	     179.977574
	 D(2,4,8,11)      =         1.056235	      60.517822
	 D(3,2,4,8)       =         3.139936	     179.905062
	 D(4,2,3,5)       =        -1.027571	     -58.875459
	 D(4,2,3,6)       =        -3.138873	    -179.844202
	 D(4,2,3,7)       =         1.033276	      59.202366

	Current energy   :      -266.8364423391

	Energy change for the previous step:
		Projected    :        -0.0000008836
		Actual       :         0.0000004742

	Performing BFGS update.
	Previous computed or guess Hessian on step 1.
	Steps to be used in Hessian update: 2 1
	Taking RFO optimization step.
	Going to follow RFO solution 1.
	Using RFO vector 1.
	Norm of target step-size    0.00492
	Projected energy change by RFO approximation:        -0.0000011002

	Back-transformation to cartesian coordinates...
	Successfully converged to displaced geometry.

	--- Internal Coordinate Step in ANG or DEG, aJ/ANG or AJ/DEG ---
	 ---------------------------------------------------------------------------
	   Coordinate                Previous        Force       Change         New 
	   ----------                --------       ------       ------       ------
	    1 R(1,2)          =      1.188013     0.000391    -0.000007     1.188005
	    2 R(2,3)          =      1.504184     0.000132     0.000008     1.504192
	    3 R(2,4)          =      1.326452     0.000260     0.000065     1.326517
	    4 R(3,5)          =      1.083829    -0.000055     0.000000     1.083829
	    5 R(3,6)          =      1.079765    -0.000394    -0.000031     1.079734
	    6 R(3,7)          =      1.083780     0.000509     0.000033     1.083813
	    7 R(4,8)          =      1.416433     0.000003     0.000040     1.416473
	    8 R(8,9)          =      1.080442     0.000024    -0.000008     1.080435
	    9 R(8,10)         =      1.078772     0.000016     0.000005     1.078777
	   10 R(8,11)         =      1.080436     0.000054    -0.000005     1.080432
	   11 B(1,2,3)        =    125.192288     0.000001     0.000802   125.193090
	   12 B(1,2,4)        =    123.396085    -0.000000     0.008812   123.404897
	   13 B(2,3,5)        =    109.738946    -0.000005    -0.004593   109.734354
	   14 B(2,3,6)        =    109.583305     0.000001     0.000177   109.583482
	   15 B(2,3,7)        =    109.723324     0.000004     0.003938   109.727262
	   16 B(2,4,8)        =    116.942036    -0.000003    -0.004771   116.937265
	   17 B(3,2,4)        =    111.411408    -0.000000    -0.009399   111.402009
	   18 B(4,8,9)        =    110.563583    -0.000001     0.006104   110.569687
	   19 B(4,8,10)       =    105.857850     0.000001     0.008193   105.866043
	   20 B(4,8,11)       =    110.555576     0.000003    -0.003186   110.552390
	   21 B(5,3,6)        =    110.066923     0.000001    -0.003704   110.063219
	   22 B(5,3,7)        =    107.640636     0.000000     0.005034   107.645670
	   23 B(6,3,7)        =    110.062496    -0.000002    -0.000794   110.061702
	   24 B(9,8,10)       =    110.301026     0.000000    -0.001936   110.299090
	   25 B(9,8,11)       =    109.224180    -0.000001    -0.004295   109.219885
	   26 B(10,8,11)      =    110.305825    -0.000001    -0.004582   110.301243
	   27 D(1,2,3,5)      =    120.958701     0.000001     0.079284   121.037984
	   28 D(1,2,3,6)      =     -0.010042     0.000002     0.086641     0.076599
	   29 D(1,2,3,7)      =   -120.963474     0.000001     0.085029  -120.878445
	   30 D(1,2,4,8)      =      0.067393    -0.000001    -0.105208    -0.037815
	   31 D(2,4,8,9)      =    -60.564106     0.000000    -0.051953   -60.616060
	   32 D(2,4,8,10)     =    179.977574     0.000000    -0.057769   179.919805
	   33 D(2,4,8,11)     =     60.517822    -0.000000    -0.055418    60.462404
	   34 D(3,2,4,8)      =    179.905062     0.000002     0.077389   179.982451
	   35 D(4,2,3,5)      =    -58.875459    -0.000002    -0.107258   -58.982718
	   36 D(4,2,3,6)      =   -179.844202    -0.000002    -0.099901  -179.944103
	   37 D(4,2,3,7)      =     59.202366    -0.000002    -0.101513    59.100853
	 ---------------------------------------------------------------------------

  ==> Convergence Check <==

  Measures of convergence in internal coordinates in au.
  Criteria marked as inactive (o), active & met (*), and active & unmet ( ).
  ---------------------------------------------------------------------------------------------
   Step     Total Energy     Delta E     MAX Force     RMS Force      MAX Disp      RMS Disp   
  ---------------------------------------------------------------------------------------------
    Convergence Criteria    1.00e-06 *    3.00e-04 *             o    1.20e-03 *             o
  ---------------------------------------------------------------------------------------------
      3    -266.83644234    4.74e-07 *    1.03e-04 *    4.94e-05 o    1.87e-03      8.09e-04 o  ~
  ---------------------------------------------------------------------------------------------


  **** Optimization is complete! (in 3 steps) ****

  ==> Optimization Summary <==

  Measures of convergence in internal coordinates in au.
  --------------------------------------------------------------------------------------------------------------- ~
   Step         Total Energy             Delta E       MAX Force       RMS Force        MAX Disp        RMS Disp  ~
  --------------------------------------------------------------------------------------------------------------- ~
      1    -266.836441496577   -266.836441496577      0.00093678      0.00019503      0.00323093      0.00093784  ~
      2    -266.836442813357     -0.000001316780      0.00014225      0.00003696      0.00232917      0.00094440  ~
      3    -266.836442339126      0.000000474231      0.00010341      0.00004942      0.00187201      0.00080900  ~
  --------------------------------------------------------------------------------------------------------------- ~

	Writing optimization data to binary file.
	Final energy is   -266.8364423391258
	Final (previous) structure:
	Cartesian Geometry (in Angstrom)
	    O    -0.2916276296   1.3238146621  -0.0007319094
	    C    -0.4496545190   0.1463600137   0.0009611122
	    C    -1.7832941123  -0.5493214198  -0.0002956890
	    O     0.5508211070  -0.7245723683   0.0006724410
	    H    -1.8635375139  -1.1853711682  -0.8741873815
	    H    -2.5746721944   0.1852581815  -0.0027932143
	    H    -1.8664137960  -1.1823810597   0.8754359802
	    C     1.8639497105  -0.1935594437  -0.0003185011
	    H     2.0288598083   0.4092833259  -0.8816477183
	    H     2.5262617707  -1.0450826485  -0.0000028964
	    H     2.0295202801   0.4105548717   0.8800082954
	Saving final (previous) structure.
			--------------------------
			 OPTKING Finished Execution 
			--------------------------

    Final optimized geometry and variables:
    Molecular point group: c1
    Full point group: C1

    Geometry (in Angstrom), charge = 0, multiplicity = 1:

    O           -0.291627607322     1.323814561025    -0.000731909319
    C           -0.449654484641     0.146360002509     0.000961112091
    C           -1.783293976081    -0.549321377856    -0.000295689011
    O            0.550821064949    -0.724572312992     0.000672440943
    H           -1.863537371625    -1.185371077636    -0.874187314716
    H           -2.574671997790     0.185258167331    -0.002793214128
    H           -1.866413653454    -1.182380969433     0.875435913301
    C            1.863949568185    -0.193559428879    -0.000318501058
    H            2.028859653340     0.409283294613    -0.881647651018
    H            2.526261577748    -1.045082568694    -0.000002896393
    H            2.029520125101     0.410554840323     0.880008228153

	Cleaning optimization helper files.


Properties will be evaluated at   0.000000,   0.000000,   0.000000 Bohr

Properties computed using the  density matrix

  Nuclear Dipole Moment: (a.u.)
     X:     0.2638      Y:    -2.2543      Z:    -0.0030

  Electronic Dipole Moment: (a.u.)
     X:    -0.1129      Y:     1.4870      Z:     0.0037

  Dipole Moment: (a.u.)
     X:     0.1508      Y:    -0.7673      Z:     0.0007     Total:     0.7820

  Dipole Moment: (Debye)
     X:     0.3833      Y:    -1.9503      Z:     0.0019     Total:     1.9876

  Quadrupole Moment: (Debye Ang)
    XX:   -23.7995     YY:   -35.2783     ZZ:   -28.9687
    XY:     1.5357     XZ:    -0.0022     YZ:     0.0049

  Traceless Quadrupole Moment: (Debye Ang)
    XX:     5.5493     YY:    -5.9295     ZZ:     0.3801
    XY:     1.5357     XZ:    -0.0022     YZ:     0.0049

  Mulliken Charges: (a.u.)
   Center  Symbol    Alpha    Beta     Spin     Total
       1     O     4.28202  4.28202  0.00000 -0.56405
       2     C     2.62257  2.62257  0.00000  0.75486
       3     C     3.28175  3.28175  0.00000 -0.56351
       4     O     4.29930  4.29930  0.00000 -0.59860
       5     H     0.39986  0.39986  0.00000  0.20028
       6     H     0.39656  0.39656  0.00000  0.20687
       7     H     0.39992  0.39992  0.00000  0.20016
       8     C     3.09250  3.09250  0.00000 -0.18501
       9     H     0.40857  0.40857  0.00000  0.18285
      10     H     0.40835  0.40835  0.00000  0.18331
      11     H     0.40859  0.40859  0.00000  0.18283

   Total alpha = 20.00000, Total beta = 20.00000, Total charge =  0.00000


*** PSI4 exiting successfully. Buy a developer a beer!
