    -----------------------------------------------------------------------
          Psi4: An Open-Source Ab Initio Electronic Structure Package
                              Psi4 (no tag) Driver

                          Git: Rev {detached?}  

    J. M. Turney, A. C. Simmonett, R. M. Parrish, E. G. Hohenstein,
    F. A. Evangelista, J. T. Fermann, B. J. Mintz, L. A. Burns, J. J. Wilke,
    M. L. Abrams, N. J. Russ, M. L. Leininger, C. L. Janssen, E. T. Seidl,
    W. D. Allen, H. F. Schaefer, R. A. King, E. F. Valeev, C. D. Sherrill,
    and T. D. Crawford, WIREs Comput. Mol. Sci. 2, 556-565 (2012)
    (doi: 10.1002/wcms.93)

                         Additional Contributions by
    A. E. DePrince, M. Saitow, U. Bozkaya, A. Yu. Sokolov
    -----------------------------------------------------------------------


    Psi4 started on: Tue Jul  5 16:44:40 2016

    Process ID:  24779
    PSI4DATADIR: /export131/home/mjharvey/miniconda3/share
    Memory level set to 256.000 MB

  ==> Input File <==

--------------------------------------------------------------------------
set {
	reference rhf
	basis 6-31G*
}


set_num_threads( 1 )
memory 2 gb

molecule MOL {
0 1

H	 -1.912616	 3.275153	 0.348672
N	 -1.265624	 3.212699	 1.110937
C	 -1.460920	 1.975768	 1.853490
H	 -1.434737	 4.006099	 1.699790
C	 -0.435163	 0.928932	 1.431930
H	 -2.458596	 1.610775	 1.629255
H	 -1.414112	 2.113505	 2.936650
C	 -0.679275	 0.379305	 0.025956
H	 0.554019	 1.373218	 1.494890
H	 -0.450378	 0.107436	 2.147646
C	 -0.791153	 1.473151	 -1.037697
H	 -1.591837	 -0.214897	 0.024303
H	 0.126996	 -0.300826	 -0.244591
C	 -2.115055	 2.234023	 -0.975523
H	 0.033362	 2.173024	 -0.921214
H	 -0.676491	 1.028719	 -2.024099
H	 -2.243718	 2.718807	 -0.011807
H	 -2.163946	 3.002377	 -1.740928
H	 -2.958889	 1.565841	 -1.123406

	symmetry c1
}
set optking {
	frozen_dihedral = ("
		6 3 5 9,
		12 8 5 9,
		12 8 11 15
	")
}

ee = energy('scf')
oeprop('DIPOLE', 'QUADRUPOLE', 'MULLIKEN_CHARGES')
f=open( 'psi4out.xyz', 'w' )
f.write( "19  " )
f.write( str(ee) + "\n" )
f.write( MOL.save_string_xyz() )
f.close()
--------------------------------------------------------------------------

  Memory set to   2.000 GiB by Python script.

*** tstart() called on cx1-3-3-2.cx1.hpc.ic.ac.uk
*** at Tue Jul  5 16:44:40 2016


         ---------------------------------------------------------
                                   SCF
            by Justin Turney, Rob Parrish, and Andy Simmonett
                              RHF Reference
                        1 Threads,   2000 MiB Core
         ---------------------------------------------------------

  ==> Geometry <==

    Molecular point group: c1
    Full point group: C1

    Geometry (in Angstrom), charge = 0, multiplicity = 1:

       Center              X                  Y                   Z               Mass       
    ------------   -----------------  -----------------  -----------------  -----------------
           H         -0.762022842554     1.535676116282    -0.057534661752     1.007825032070
           N         -0.115030842554     1.473222116282     0.704730338248    14.003074004780
           C         -0.310326842554     0.236291116282     1.447283338248    12.000000000000
           H         -0.284143842554     2.266622116282     1.293583338248     1.007825032070
           C          0.715430157446    -0.810544883718     1.025723338248    12.000000000000
           H         -1.308002842554    -0.128701883718     1.223048338248     1.007825032070
           H         -0.263518842554     0.374028116282     2.530443338248     1.007825032070
           C          0.471318157446    -1.360171883718    -0.380250661752    12.000000000000
           H          1.704612157446    -0.366258883718     1.088683338248     1.007825032070
           H          0.700215157446    -1.632040883718     1.741439338248     1.007825032070
           C          0.359440157446    -0.266325883718    -1.443903661752    12.000000000000
           H         -0.441243842554    -1.954373883718    -0.381903661752     1.007825032070
           H          1.277589157446    -2.040302883718    -0.650797661752     1.007825032070
           C         -0.964461842554     0.494546116282    -1.381729661752    12.000000000000
           H          1.183955157446     0.433547116282    -1.327420661752     1.007825032070
           H          0.474102157446    -0.710757883718    -2.430305661752     1.007825032070
           H         -1.093124842554     0.979330116282    -0.418013661752     1.007825032070
           H         -1.013352842554     1.262900116282    -2.147134661752     1.007825032070
           H         -1.808295842554    -0.173635883718    -1.529612661752     1.007825032070

  Running in c1 symmetry.

  Rotational constants: A =      0.13948  B =      0.11478  C =      0.07364 [cm^-1]
  Rotational constants: A =   4181.37228  B =   3440.88575  C =   2207.55613 [MHz]
  Nuclear repulsion =  272.476381907065445

  Charge       = 0
  Multiplicity = 1
  Electrons    = 50
  Nalpha       = 25
  Nbeta        = 25

  ==> Algorithm <==

  SCF Algorithm Type is DF.
  DIIS enabled.
  MOM disabled.
  Fractional occupation disabled.
  Guess Type is CORE.
  Energy threshold   = 1.00e-06
  Density threshold  = 1.00e-06
  Integral threshold = 0.00e+00

  ==> Primary Basis <==

  Basis Set: 6-31G*
    Number of shells: 62
    Number of basis function: 116
    Number of Cartesian functions: 116
    Spherical Harmonics?: false
    Max angular momentum: 2

  ==> Pre-Iterations <==

   -------------------------------------------------------
    Irrep   Nso     Nmo     Nalpha   Nbeta   Ndocc  Nsocc
   -------------------------------------------------------
     A        116     116       0       0       0       0
   -------------------------------------------------------
    Total     116     116      25      25      25       0
   -------------------------------------------------------

 OEINTS: Overlap, kinetic, potential, dipole, and quadrupole integrals
         stored in file 35.

  ==> Integral Setup <==

  ==> DFJK: Density-Fitted J/K Matrices <==

    J tasked:                  Yes
    K tasked:                  Yes
    wK tasked:                  No
    OpenMP threads:              1
    Integrals threads:           1
    Memory (MB):              1430
    Algorithm:                Core
    Integral Cache:           NONE
    Schwarz Cutoff:          1E-12
    Fitting Condition:       1E-12

   => Auxiliary Basis Set <=

  Basis Set: 
    Number of shells: 261
    Number of basis function: 811
    Number of Cartesian functions: 811
    Spherical Harmonics?: false
    Max angular momentum: 3

  Minimum eigenvalue in the overlap matrix is 4.5955468840E-03.
  Using Symmetric Orthogonalization.
  SCF Guess: Core (One-Electron) Hamiltonian.

  ==> Iterations <==

                           Total Energy        Delta E     RMS |[F,P]|

   @DF-RHF iter   1:  -196.10685396277944   -1.96107e+02   7.16288e-02 
   @DF-RHF iter   2:  -169.96717265597550    2.61397e+01   6.40303e-02 DIIS
   @DF-RHF iter   3:  -211.51022672150697   -4.15431e+01   4.64571e-02 DIIS
   @DF-RHF iter   4:  -224.20482085928990   -1.26946e+01   4.70660e-02 DIIS
   @DF-RHF iter   5:  -250.88311114059019   -2.66783e+01   6.19595e-03 DIIS
   @DF-RHF iter   6:  -251.16072858419983   -2.77617e-01   2.05417e-03 DIIS
   @DF-RHF iter   7:  -251.18852114542705   -2.77926e-02   4.82932e-04 DIIS
   @DF-RHF iter   8:  -251.19101875791301   -2.49761e-03   1.13194e-04 DIIS
   @DF-RHF iter   9:  -251.19115090189104   -1.32144e-04   4.06735e-05 DIIS
   @DF-RHF iter  10:  -251.19116797215105   -1.70703e-05   1.28828e-05 DIIS
   @DF-RHF iter  11:  -251.19117007957487   -2.10742e-06   4.08629e-06 DIIS
   @DF-RHF iter  12:  -251.19117024349981   -1.63925e-07   1.35045e-06 DIIS
   @DF-RHF iter  13:  -251.19117026513590   -2.16361e-08   3.75389e-07 DIIS

  ==> Post-Iterations <==

    Orbital Energies (a.u.)
    -----------------------

    Doubly Occupied:                                                      

       1A    -15.514900     2A    -11.241510     3A    -11.208016  
       4A    -11.207145     5A    -11.204423     6A    -11.195632  
       7A     -1.211792     8A     -1.062873     9A     -1.019554  
      10A     -0.900470    11A     -0.855023    12A     -0.769220  
      13A     -0.731889    14A     -0.639438    15A     -0.611921  
      16A     -0.580196    17A     -0.572404    18A     -0.557078  
      19A     -0.520216    20A     -0.492596    21A     -0.462105  
      22A     -0.454565    23A     -0.448928    24A     -0.428135  
      25A     -0.366227  

    Virtual:                                                              

      26A      0.234130    27A      0.265857    28A      0.269278  
      29A      0.282982    30A      0.293641    31A      0.303978  
      32A      0.329946    33A      0.335292    34A      0.339776  
      35A      0.343231    36A      0.359425    37A      0.392978  
      38A      0.403636    39A      0.420877    40A      0.427763  
      41A      0.453557    42A      0.468434    43A      0.489649  
      44A      0.711272    45A      0.733528    46A      0.743007  
      47A      0.768933    48A      0.792175    49A      0.816068  
      50A      0.840947    51A      0.912271    52A      0.933267  
      53A      0.941860    54A      0.987995    55A      0.999199  
      56A      1.018125    57A      1.037713    58A      1.042423  
      59A      1.113167    60A      1.125365    61A      1.153686  
      62A      1.157360    63A      1.167728    64A      1.186745  
      65A      1.192387    66A      1.226572    67A      1.232157  
      68A      1.246594    69A      1.257757    70A      1.260899  
      71A      1.270848    72A      1.285638    73A      1.378154  
      74A      1.454600    75A      1.515017    76A      1.584701  
      77A      1.598781    78A      1.718232    79A      1.749243  
      80A      1.802768    81A      1.859903    82A      1.916173  
      83A      1.958257    84A      1.984334    85A      2.082717  
      86A      2.145896    87A      2.229694    88A      2.245825  
      89A      2.262790    90A      2.282619    91A      2.298233  
      92A      2.379005    93A      2.392413    94A      2.431500  
      95A      2.489919    96A      2.553146    97A      2.589403  
      98A      2.612300    99A      2.661636   100A      2.690118  
     101A      2.745138   102A      2.774818   103A      2.790593  
     104A      2.817336   105A      2.950168   106A      2.990172  
     107A      3.017647   108A      3.067165   109A      3.099974  
     110A      3.138571   111A      4.341610   112A      4.596223  
     113A      4.705563   114A      4.813004   115A      4.959197  
     116A      5.006510  

    Final Occupation by Irrep:
              A 
    DOCC [    25 ]

  Energy converged.

  @DF-RHF Final Energy:  -251.19117026513590

   => Energetics <=

    Nuclear Repulsion Energy =            272.4763819070654449
    One-Electron Energy =                -878.8224179454116438
    Two-Electron Energy =                 355.1548657732109291
    DFT Exchange-Correlation Energy =       0.0000000000000000
    Empirical Dispersion Energy =           0.0000000000000000
    PCM Polarization Energy =               0.0000000000000000
    EFP Energy =                            0.0000000000000000
    Total Energy =                       -251.1911702651353266

    Alert: EFP and PCM quantities not currently incorporated into SCF psivars.

Properties will be evaluated at   0.000000,   0.000000,   0.000000 Bohr
  ==> Properties <==


Properties computed using the SCF density matrix

  Nuclear Dipole Moment: (a.u.)
     X:    -1.5308      Y:    -0.1486      Z:    -1.0009

  Electronic Dipole Moment: (a.u.)
     X:     1.0836      Y:     0.2338      Z:     1.2304

  Dipole Moment: (a.u.)
     X:    -0.4472      Y:     0.0852      Z:     0.2294     Total:     0.5098

  Dipole Moment: (Debye)
     X:    -1.1367      Y:     0.2166      Z:     0.5831     Total:     1.2958


  Saving occupied orbitals to File 180.

*** tstop() called on cx1-3-3-2.cx1.hpc.ic.ac.uk at Tue Jul  5 16:44:50 2016
Module time:
	user time   =       9.30 seconds =       0.15 minutes
	system time =       0.06 seconds =       0.00 minutes
	total time  =         10 seconds =       0.17 minutes
Total time:
	user time   =       9.30 seconds =       0.15 minutes
	system time =       0.06 seconds =       0.00 minutes
	total time  =         10 seconds =       0.17 minutes


Properties will be evaluated at   0.000000,   0.000000,   0.000000 Bohr

Properties computed using the  density matrix

  Nuclear Dipole Moment: (a.u.)
     X:    -1.5308      Y:    -0.1486      Z:    -1.0009

  Electronic Dipole Moment: (a.u.)
     X:     1.0836      Y:     0.2338      Z:     1.2304

  Dipole Moment: (a.u.)
     X:    -0.4472      Y:     0.0852      Z:     0.2294     Total:     0.5098

  Dipole Moment: (Debye)
     X:    -1.1367      Y:     0.2166      Z:     0.5831     Total:     1.2958

  Quadrupole Moment: (Debye Ang)
    XX:   -41.4133     YY:   -39.9512     ZZ:   -39.6852
    XY:    -2.4818     XZ:    -0.9154     YZ:     0.7886

  Traceless Quadrupole Moment: (Debye Ang)
    XX:    -1.0634     YY:     0.3987     ZZ:     0.6647
    XY:    -2.4818     XZ:    -0.9154     YZ:     0.7886

  Mulliken Charges: (a.u.)
   Center  Symbol    Alpha    Beta     Spin     Total
       1     H     0.30395  0.30395  0.00000  0.39210
       2     N     3.92784  3.92784  0.00000 -0.85567
       3     C     3.09158  3.09158  0.00000 -0.18317
       4     H     0.33626  0.33626  0.00000  0.32747
       5     C     3.13962  3.13962  0.00000 -0.27923
       6     H     0.42600  0.42600  0.00000  0.14800
       7     H     0.41430  0.41430  0.00000  0.17140
       8     C     3.15774  3.15774  0.00000 -0.31548
       9     H     0.41607  0.41607  0.00000  0.16787
      10     H     0.42675  0.42675  0.00000  0.14649
      11     C     3.15236  3.15236  0.00000 -0.30471
      12     H     0.42574  0.42574  0.00000  0.14852
      13     H     0.42017  0.42017  0.00000  0.15967
      14     C     3.25224  3.25224  0.00000 -0.50447
      15     H     0.40877  0.40877  0.00000  0.18247
      16     H     0.42045  0.42045  0.00000  0.15910
      17     H     0.43913  0.43913  0.00000  0.12173
      18     H     0.41850  0.41850  0.00000  0.16301
      19     H     0.42255  0.42255  0.00000  0.15490

   Total alpha = 25.00000, Total beta = 25.00000, Total charge =  0.00000


*** PSI4 exiting successfully. Buy a developer a beer!
