    -----------------------------------------------------------------------
          Psi4: An Open-Source Ab Initio Electronic Structure Package
                              Psi4 (no tag) Driver

                          Git: Rev {detached?}  

    J. M. Turney, A. C. Simmonett, R. M. Parrish, E. G. Hohenstein,
    F. A. Evangelista, J. T. Fermann, B. J. Mintz, L. A. Burns, J. J. Wilke,
    M. L. Abrams, N. J. Russ, M. L. Leininger, C. L. Janssen, E. T. Seidl,
    W. D. Allen, H. F. Schaefer, R. A. King, E. F. Valeev, C. D. Sherrill,
    and T. D. Crawford, WIREs Comput. Mol. Sci. 2, 556-565 (2012)
    (doi: 10.1002/wcms.93)

                         Additional Contributions by
    A. E. DePrince, M. Saitow, U. Bozkaya, A. Yu. Sokolov
    -----------------------------------------------------------------------


    Psi4 started on: Tue Jul  5 17:08:13 2016

    Process ID:  17162
    PSI4DATADIR: /export131/home/mjharvey/miniconda3/share
    Memory level set to 256.000 MB

  ==> Input File <==

--------------------------------------------------------------------------
set {
	reference rhf
	basis 6-31G*
}


set_num_threads( 1 )
memory 2 gb

molecule MOL {
0 1

H	 -1.359113	 -3.038233	 1.438197
C	 -1.867896	 -2.108545	 1.272421
C	 -1.271134	 -0.975404	 1.562018
H	 -2.862814	 -2.132555	 0.869343
O	 -0.088820	 -0.934487	 2.230837
H	 -1.668742	 -0.018656	 1.272645
C	 1.075857	 -0.772473	 1.496583
C	 1.375804	 -1.987551	 0.648108
H	 1.936994	 -0.579740	 2.126657
H	 0.932799	 0.067601	 0.833035
F	 0.270940	 -2.376022	 0.028292
F	 2.284988	 -1.727844	 -0.276970
F	 1.813767	 -2.998844	 1.369125

	symmetry c1
}
set optking {
	frozen_dihedral = ("
		11 8 7 9,
		3 5 7 9,
		6 3 2 1
	")
}

ee = energy('scf')
oeprop('DIPOLE', 'QUADRUPOLE', 'MULLIKEN_CHARGES')
f=open( 'psi4out.xyz', 'w' )
f.write( "13  " )
f.write( str(ee) + "\n" )
f.write( MOL.save_string_xyz() )
f.close()
--------------------------------------------------------------------------

  Memory set to   2.000 GiB by Python script.

*** tstart() called on cx1-3-14-4.cx1.hpc.ic.ac.uk
*** at Tue Jul  5 17:08:13 2016


         ---------------------------------------------------------
                                   SCF
            by Justin Turney, Rob Parrish, and Andy Simmonett
                              RHF Reference
                        1 Threads,   2000 MiB Core
         ---------------------------------------------------------

  ==> Geometry <==

    Molecular point group: c1
    Full point group: C1

    Geometry (in Angstrom), charge = 0, multiplicity = 1:

       Center              X                  Y                   Z               Mass       
    ------------   -----------------  -----------------  -----------------  -----------------
           H         -1.916948717610    -1.246894375095     0.459778390623     1.007825032070
           C         -2.425731717610    -0.317206375095     0.294002390623    12.000000000000
           C         -1.828969717610     0.815934624905     0.583599390623    12.000000000000
           H         -3.420649717610    -0.341216375095    -0.109075609377     1.007825032070
           O         -0.646655717610     0.856851624905     1.252418390623    15.994914619560
           H         -2.226577717610     1.772682624905     0.294226390623     1.007825032070
           C          0.518021282390     1.018865624905     0.518164390623    12.000000000000
           C          0.817968282390    -0.196212375095    -0.330310609377    12.000000000000
           H          1.379158282390     1.211598624905     1.148238390623     1.007825032070
           H          0.374963282390     1.858939624905    -0.145383609377     1.007825032070
           F         -0.286895717610    -0.584683375095    -0.950126609377    18.998403224000
           F          1.727152282390     0.063494624905    -1.255388609377    18.998403224000
           F          1.255931282390    -1.207505375095     0.390706390623    18.998403224000

  Running in c1 symmetry.

  Rotational constants: A =      0.12610  B =      0.05263  C =      0.04767 [cm^-1]
  Rotational constants: A =   3780.40666  B =   1577.89953  C =   1429.21362 [MHz]
  Nuclear repulsion =  427.243741390485695

  Charge       = 0
  Multiplicity = 1
  Electrons    = 64
  Nalpha       = 32
  Nbeta        = 32

  ==> Algorithm <==

  SCF Algorithm Type is DF.
  DIIS enabled.
  MOM disabled.
  Fractional occupation disabled.
  Guess Type is CORE.
  Energy threshold   = 1.00e-06
  Density threshold  = 1.00e-06
  Integral threshold = 0.00e+00

  ==> Primary Basis <==

  Basis Set: 6-31G*
    Number of shells: 58
    Number of basis function: 130
    Number of Cartesian functions: 130
    Spherical Harmonics?: false
    Max angular momentum: 2

  ==> Pre-Iterations <==

   -------------------------------------------------------
    Irrep   Nso     Nmo     Nalpha   Nbeta   Ndocc  Nsocc
   -------------------------------------------------------
     A        130     130       0       0       0       0
   -------------------------------------------------------
    Total     130     130      32      32      32       0
   -------------------------------------------------------

 OEINTS: Overlap, kinetic, potential, dipole, and quadrupole integrals
         stored in file 35.

  ==> Integral Setup <==

  ==> DFJK: Density-Fitted J/K Matrices <==

    J tasked:                  Yes
    K tasked:                  Yes
    wK tasked:                  No
    OpenMP threads:              1
    Integrals threads:           1
    Memory (MB):              1430
    Algorithm:                Core
    Integral Cache:           NONE
    Schwarz Cutoff:          1E-12
    Fitting Condition:       1E-12

   => Auxiliary Basis Set <=

  Basis Set: 
    Number of shells: 237
    Number of basis function: 773
    Number of Cartesian functions: 773
    Spherical Harmonics?: false
    Max angular momentum: 3

  Minimum eigenvalue in the overlap matrix is 1.8210270238E-03.
  Using Symmetric Orthogonalization.
  SCF Guess: Core (One-Electron) Hamiltonian.

  ==> Iterations <==

                           Total Energy        Delta E     RMS |[F,P]|

   @DF-RHF iter   1:  -441.11413450015988   -4.41114e+02   7.67650e-02 
   @DF-RHF iter   2:  -218.99657922982050    2.22118e+02   1.01296e-01 DIIS
   @DF-RHF iter   3:  -488.48362748026437   -2.69487e+02   4.45985e-02 DIIS
   @DF-RHF iter   4:  -427.19545395554582    6.12882e+01   6.46648e-02 DIIS
   @DF-RHF iter   5:  -523.75645673541976   -9.65610e+01   1.62275e-02 DIIS
   @DF-RHF iter   6:  -526.90342830570239   -3.14697e+00   9.09909e-03 DIIS
   @DF-RHF iter   7:  -527.46088329456302   -5.57455e-01   2.20476e-03 DIIS
   @DF-RHF iter   8:  -527.49930436227373   -3.84211e-02   1.09063e-03 DIIS
   @DF-RHF iter   9:  -527.51160188735275   -1.22975e-02   4.49714e-04 DIIS
   @DF-RHF iter  10:  -527.51352697110929   -1.92508e-03   2.05731e-04 DIIS
   @DF-RHF iter  11:  -527.51407229838287   -5.45327e-04   3.47280e-05 DIIS
   @DF-RHF iter  12:  -527.51409152473775   -1.92264e-05   1.49244e-05 DIIS
   @DF-RHF iter  13:  -527.51409529498824   -3.77025e-06   6.53407e-06 DIIS
   @DF-RHF iter  14:  -527.51409592343612   -6.28448e-07   1.73837e-06 DIIS
   @DF-RHF iter  15:  -527.51409599081308   -6.73770e-08   4.88212e-07 DIIS

  ==> Post-Iterations <==

    Orbital Energies (a.u.)
    -----------------------

    Doubly Occupied:                                                      

       1A    -26.344343     2A    -26.341758     3A    -26.336068  
       4A    -20.595474     5A    -11.501154     6A    -11.314195  
       7A    -11.284565     8A    -11.219232     9A     -1.741098  
      10A     -1.639465    11A     -1.637523    12A     -1.429178  
      13A     -1.077811    14A     -1.013908    15A     -0.928194  
      16A     -0.837074    17A     -0.829788    18A     -0.815715  
      19A     -0.781463    20A     -0.718964    21A     -0.713786  
      22A     -0.680431    23A     -0.676006    24A     -0.667301  
      25A     -0.655607    26A     -0.642374    27A     -0.639750  
      28A     -0.590204    29A     -0.558768    30A     -0.522168  
      31A     -0.462232    32A     -0.361539  

    Virtual:                                                              

      33A      0.181544    34A      0.251468    35A      0.272486  
      36A      0.283392    37A      0.300098    38A      0.304070  
      39A      0.343513    40A      0.411408    41A      0.428549  
      42A      0.452506    43A      0.481565    44A      0.496381  
      45A      0.520332    46A      0.685606    47A      0.716113  
      48A      0.747111    49A      0.765665    50A      0.779549  
      51A      0.788306    52A      0.807962    53A      0.818184  
      54A      0.882361    55A      0.895592    56A      0.915853  
      57A      0.998274    58A      1.068185    59A      1.108474  
      60A      1.117241    61A      1.141691    62A      1.152208  
      63A      1.201011    64A      1.219705    65A      1.303204  
      66A      1.347353    67A      1.355973    68A      1.386280  
      69A      1.415150    70A      1.423615    71A      1.476693  
      72A      1.498505    73A      1.556770    74A      1.622033  
      75A      1.634909    76A      1.647192    77A      1.671805  
      78A      1.677772    79A      1.716964    80A      1.727204  
      81A      1.743576    82A      1.830537    83A      1.896372  
      84A      1.937057    85A      1.968410    86A      1.988509  
      87A      2.027796    88A      2.087603    89A      2.112470  
      90A      2.124451    91A      2.148661    92A      2.164934  
      93A      2.220346    94A      2.254856    95A      2.277209  
      96A      2.302858    97A      2.342430    98A      2.372713  
      99A      2.383603   100A      2.404548   101A      2.416661  
     102A      2.424078   103A      2.465238   104A      2.520764  
     105A      2.556386   106A      2.600794   107A      2.653141  
     108A      2.705231   109A      2.767259   110A      2.814373  
     111A      2.844302   112A      2.953637   113A      3.064189  
     114A      3.116679   115A      3.148044   116A      3.181806  
     117A      3.242122   118A      3.293497   119A      3.381173  
     120A      3.425462   121A      3.431185   122A      3.480813  
     123A      4.359279   124A      4.574154   125A      4.632019  
     126A      4.752935   127A      4.884315   128A      4.937941  
     129A      5.194404   130A      5.828418  

    Final Occupation by Irrep:
              A 
    DOCC [    32 ]

  Energy converged.

  @DF-RHF Final Energy:  -527.51409599081308

   => Energetics <=

    Nuclear Repulsion Energy =            427.2437413904856953
    One-Electron Energy =               -1578.4013857929583082
    Two-Electron Energy =                 623.6435484116592534
    DFT Exchange-Correlation Energy =       0.0000000000000000
    Empirical Dispersion Energy =           0.0000000000000000
    PCM Polarization Energy =               0.0000000000000000
    EFP Energy =                            0.0000000000000000
    Total Energy =                       -527.5140959908134164

    Alert: EFP and PCM quantities not currently incorporated into SCF psivars.

Properties will be evaluated at   0.000000,   0.000000,   0.000000 Bohr
  ==> Properties <==


Properties computed using the SCF density matrix

  Nuclear Dipole Moment: (a.u.)
     X:    -7.9933      Y:     4.6865      Z:     3.2628

  Electronic Dipole Moment: (a.u.)
     X:     7.9265      Y:    -4.0684      Z:    -3.4380

  Dipole Moment: (a.u.)
     X:    -0.0669      Y:     0.6181      Z:    -0.1752     Total:     0.6459

  Dipole Moment: (Debye)
     X:    -0.1699      Y:     1.5710      Z:    -0.4454     Total:     1.6418


  Saving occupied orbitals to File 180.

*** tstop() called on cx1-3-14-4.cx1.hpc.ic.ac.uk at Tue Jul  5 17:08:23 2016
Module time:
	user time   =       9.64 seconds =       0.16 minutes
	system time =       0.07 seconds =       0.00 minutes
	total time  =         10 seconds =       0.17 minutes
Total time:
	user time   =       9.64 seconds =       0.16 minutes
	system time =       0.07 seconds =       0.00 minutes
	total time  =         10 seconds =       0.17 minutes


Properties will be evaluated at   0.000000,   0.000000,   0.000000 Bohr

Properties computed using the  density matrix

  Nuclear Dipole Moment: (a.u.)
     X:    -7.9933      Y:     4.6865      Z:     3.2628

  Electronic Dipole Moment: (a.u.)
     X:     7.9265      Y:    -4.0684      Z:    -3.4380

  Dipole Moment: (a.u.)
     X:    -0.0669      Y:     0.6181      Z:    -0.1752     Total:     0.6459

  Dipole Moment: (Debye)
     X:    -0.1699      Y:     1.5710      Z:    -0.4454     Total:     1.6418

  Quadrupole Moment: (Debye Ang)
    XX:   -42.2465     YY:   -41.8030     ZZ:   -49.0097
    XY:     1.6133     XZ:     3.3693     YZ:    -0.6400

  Traceless Quadrupole Moment: (Debye Ang)
    XX:     2.1066     YY:     2.5500     ZZ:    -4.6566
    XY:     1.6133     XZ:     3.3693     YZ:    -0.6400

  Mulliken Charges: (a.u.)
   Center  Symbol    Alpha    Beta     Spin     Total
       1     H     0.40170  0.40170  0.00000  0.19660
       2     C     3.19831  3.19831  0.00000 -0.39663
       3     C     2.92461  2.92461  0.00000  0.15079
       4     H     0.40658  0.40658  0.00000  0.18684
       5     O     4.30620  4.30620  0.00000 -0.61240
       6     H     0.41110  0.41110  0.00000  0.17780
       7     C     3.05441  3.05441  0.00000 -0.10882
       8     C     2.45858  2.45858  0.00000  1.08283
       9     H     0.39231  0.39231  0.00000  0.21539
      10     H     0.40947  0.40947  0.00000  0.18106
      11     F     4.67911  4.67911  0.00000 -0.35822
      12     F     4.68098  4.68098  0.00000 -0.36196
      13     F     4.67665  4.67665  0.00000 -0.35329

   Total alpha = 32.00000, Total beta = 32.00000, Total charge =  0.00000


*** PSI4 exiting successfully. Buy a developer a beer!
