    -----------------------------------------------------------------------
          Psi4: An Open-Source Ab Initio Electronic Structure Package
                              Psi4 (no tag) Driver

                          Git: Rev {detached?}  

    J. M. Turney, A. C. Simmonett, R. M. Parrish, E. G. Hohenstein,
    F. A. Evangelista, J. T. Fermann, B. J. Mintz, L. A. Burns, J. J. Wilke,
    M. L. Abrams, N. J. Russ, M. L. Leininger, C. L. Janssen, E. T. Seidl,
    W. D. Allen, H. F. Schaefer, R. A. King, E. F. Valeev, C. D. Sherrill,
    and T. D. Crawford, WIREs Comput. Mol. Sci. 2, 556-565 (2012)
    (doi: 10.1002/wcms.93)

                         Additional Contributions by
    A. E. DePrince, M. Saitow, U. Bozkaya, A. Yu. Sokolov
    -----------------------------------------------------------------------


    Psi4 started on: Tue Jul  5 16:27:19 2016

    Process ID:  29394
    PSI4DATADIR: /export131/home/mjharvey/miniconda3/share
    Memory level set to 256.000 MB

  ==> Input File <==

--------------------------------------------------------------------------
set {
	reference rhf
	basis 6-31G*
}


set_num_threads( 1 )
memory 2 gb

molecule MOL {
0 1

H	 3.299469	 -0.432053	 -0.021001
C	 2.239653	 -0.249868	 -0.016486
C	 1.564583	 -0.133822	 1.192511
C	 1.556261	 -0.132392	 -1.215299
H	 2.102055	 -0.226215	 2.118855
C	 0.203541	 0.100144	 1.201921
H	 2.081823	 -0.222737	 -2.148501
C	 0.190845	 0.102326	 -1.204515
H	 -0.336624	 0.192999	 2.125366
C	 -0.488460	 0.219100	 0.000000
H	 -0.345928	 0.194599	 -2.133120
C	 -1.949954	 0.470334	 0.000000
O	 -2.781584	 -0.381627	 0.000000
H	 -2.238022	 1.526388	 0.000000

	symmetry c1
}
ee = energy('scf')
oeprop('DIPOLE', 'QUADRUPOLE', 'MULLIKEN_CHARGES')
f=open( 'psi4out.xyz', 'w' )
f.write( "14  " )
f.write( str(ee) + "\n" )
f.write( MOL.save_string_xyz() )
f.close()
--------------------------------------------------------------------------

  Memory set to   2.000 GiB by Python script.

*** tstart() called on cx1-3-6-1.cx1.hpc.ic.ac.uk
*** at Tue Jul  5 16:27:20 2016


         ---------------------------------------------------------
                                   SCF
            by Justin Turney, Rob Parrish, and Andy Simmonett
                              RHF Reference
                        1 Threads,   2000 MiB Core
         ---------------------------------------------------------

  ==> Geometry <==

    Molecular point group: c1
    Full point group: C1

    Geometry (in Angstrom), charge = 0, multiplicity = 1:

       Center              X                  Y                   Z               Mass       
    ------------   -----------------  -----------------  -----------------  -----------------
           H          3.300365756599    -0.426836539755    -0.015708052816     1.007825032070
           C          2.240549756599    -0.244651539755    -0.011193052816    12.000000000000
           C          1.565479756599    -0.128605539755     1.197803947184    12.000000000000
           C          1.557157756599    -0.127175539755    -1.210006052816    12.000000000000
           H          2.102951756599    -0.220998539755     2.124147947184     1.007825032070
           C          0.204437756599     0.105360460245     1.207213947184    12.000000000000
           H          2.082719756599    -0.217520539755    -2.143208052816     1.007825032070
           C          0.191741756599     0.107542460245    -1.199222052816    12.000000000000
           H         -0.335727243401     0.198215460245     2.130658947184     1.007825032070
           C         -0.487563243401     0.224316460245     0.005292947184    12.000000000000
           H         -0.345031243401     0.199815460245    -2.127827052816     1.007825032070
           C         -1.949057243401     0.475550460245     0.005292947184    12.000000000000
           O         -2.780687243401    -0.376410539755     0.005292947184    15.994914619560
           H         -2.237125243401     1.531604460245     0.005292947184     1.007825032070

  Running in c1 symmetry.

  Rotational constants: A =      0.17373  B =      0.05162  C =      0.04160 [cm^-1]
  Rotational constants: A =   5208.36357  B =   1547.48658  C =   1247.09582 [MHz]
  Nuclear repulsion =  322.626646575362884

  Charge       = 0
  Multiplicity = 1
  Electrons    = 56
  Nalpha       = 28
  Nbeta        = 28

  ==> Algorithm <==

  SCF Algorithm Type is DF.
  DIIS enabled.
  MOM disabled.
  Fractional occupation disabled.
  Guess Type is CORE.
  Energy threshold   = 1.00e-06
  Density threshold  = 1.00e-06
  Integral threshold = 0.00e+00

  ==> Primary Basis <==

  Basis Set: 6-31G*
    Number of shells: 60
    Number of basis function: 132
    Number of Cartesian functions: 132
    Spherical Harmonics?: false
    Max angular momentum: 2

  ==> Pre-Iterations <==

   -------------------------------------------------------
    Irrep   Nso     Nmo     Nalpha   Nbeta   Ndocc  Nsocc
   -------------------------------------------------------
     A        132     132       0       0       0       0
   -------------------------------------------------------
    Total     132     132      28      28      28       0
   -------------------------------------------------------

 OEINTS: Overlap, kinetic, potential, dipole, and quadrupole integrals
         stored in file 35.

  ==> Integral Setup <==

  ==> DFJK: Density-Fitted J/K Matrices <==

    J tasked:                  Yes
    K tasked:                  Yes
    wK tasked:                  No
    OpenMP threads:              1
    Integrals threads:           1
    Memory (MB):              1430
    Algorithm:                Core
    Integral Cache:           NONE
    Schwarz Cutoff:          1E-12
    Fitting Condition:       1E-12

   => Auxiliary Basis Set <=

  Basis Set: 
    Number of shells: 246
    Number of basis function: 798
    Number of Cartesian functions: 798
    Spherical Harmonics?: false
    Max angular momentum: 3

  Minimum eigenvalue in the overlap matrix is 4.4017199523E-04.
  Using Symmetric Orthogonalization.
  SCF Guess: Core (One-Electron) Hamiltonian.

  ==> Iterations <==

                           Total Energy        Delta E     RMS |[F,P]|

   @DF-RHF iter   1:  -283.91133582297391   -2.83911e+02   6.29221e-02 
   @DF-RHF iter   2:  -252.03125609440008    3.18801e+01   5.92769e-02 DIIS
   @DF-RHF iter   3:  -265.40043268491479   -1.33692e+01   6.61076e-02 DIIS
   @DF-RHF iter   4:  -339.01841195469206   -7.36180e+01   1.74395e-02 DIIS
   @DF-RHF iter   5:  -342.57552734463411   -3.55712e+00   1.00539e-02 DIIS
   @DF-RHF iter   6:  -343.33980088592182   -7.64274e-01   2.62963e-03 DIIS
   @DF-RHF iter   7:  -343.40981668931374   -7.00158e-02   7.68756e-04 DIIS
   @DF-RHF iter   8:  -343.41785249408474   -8.03580e-03   1.32717e-04 DIIS
   @DF-RHF iter   9:  -343.41825904566940   -4.06552e-04   8.21249e-05 DIIS
   @DF-RHF iter  10:  -343.41834840692513   -8.93613e-05   3.26914e-05 DIIS
   @DF-RHF iter  11:  -343.41837557044573   -2.71635e-05   1.31509e-05 DIIS
   @DF-RHF iter  12:  -343.41837926203959   -3.69159e-06   3.21325e-06 DIIS
   @DF-RHF iter  13:  -343.41837951405955   -2.52020e-07   1.61220e-06 DIIS
   @DF-RHF iter  14:  -343.41837955969834   -4.56388e-08   4.31306e-07 DIIS

  ==> Post-Iterations <==

    Orbital Energies (a.u.)
    -----------------------

    Doubly Occupied:                                                      

       1A    -20.572835     2A    -11.335238     3A    -11.250719  
       4A    -11.247679     5A    -11.247423     6A    -11.244611  
       7A    -11.244068     8A    -11.242689     9A     -1.409573  
      10A     -1.169485    11A     -1.046382    12A     -1.029936  
      13A     -0.889776    14A     -0.841470    15A     -0.794036  
      16A     -0.720502    17A     -0.677281    18A     -0.651440  
      19A     -0.641533    20A     -0.616147    21A     -0.601963  
      22A     -0.531353    23A     -0.528452    24A     -0.512133  
      25A     -0.500845    26A     -0.423231    27A     -0.347820  
      28A     -0.344978  

    Virtual:                                                              

      29A      0.129895    30A      0.131414    31A      0.154458  
      32A      0.231222    33A      0.282899    34A      0.286658  
      35A      0.296878    36A      0.324497    37A      0.334632  
      38A      0.354587    39A      0.416445    40A      0.447777  
      41A      0.470608    42A      0.489389    43A      0.507655  
      44A      0.561553    45A      0.648864    46A      0.732508  
      47A      0.736507    48A      0.743466    49A      0.750738  
      50A      0.772889    51A      0.812789    52A      0.815357  
      53A      0.818589    54A      0.829462    55A      0.834925  
      56A      0.876533    57A      0.893905    58A      0.905035  
      59A      0.912236    60A      0.947008    61A      0.997650  
      62A      1.023960    63A      1.077749    64A      1.096927  
      65A      1.104960    66A      1.112892    67A      1.115899  
      68A      1.116915    69A      1.144278    70A      1.180695  
      71A      1.200213    72A      1.251986    73A      1.264159  
      74A      1.273146    75A      1.294106    76A      1.343140  
      77A      1.364024    78A      1.411145    79A      1.430541  
      80A      1.444134    81A      1.498358    82A      1.648337  
      83A      1.688343    84A      1.695977    85A      1.739047  
      86A      1.761819    87A      1.778088    88A      1.822627  
      89A      1.833666    90A      1.896436    91A      2.005782  
      92A      2.047570    93A      2.093756    94A      2.107226  
      95A      2.163403    96A      2.181279    97A      2.243921  
      98A      2.251791    99A      2.311541   100A      2.340849  
     101A      2.393931   102A      2.408630   103A      2.437794  
     104A      2.460345   105A      2.466496   106A      2.509471  
     107A      2.597585   108A      2.625233   109A      2.634484  
     110A      2.658598   111A      2.806304   112A      2.908646  
     113A      2.913025   114A      2.924175   115A      3.022356  
     116A      3.076715   117A      3.084600   118A      3.105516  
     119A      3.122598   120A      3.168993   121A      3.304166  
     122A      3.356342   123A      3.443270   124A      3.819885  
     125A      4.274271   126A      4.517214   127A      4.533285  
     128A      4.548591   129A      4.626484   130A      4.744397  
     131A      4.823911   132A      5.136560  

    Final Occupation by Irrep:
              A 
    DOCC [    28 ]

  Energy converged.

  @DF-RHF Final Energy:  -343.41837955969834

   => Energetics <=

    Nuclear Repulsion Energy =            322.6266465753628836
    One-Electron Energy =               -1104.7628329318554279
    Two-Electron Energy =                 438.7178067967947754
    DFT Exchange-Correlation Energy =       0.0000000000000000
    Empirical Dispersion Energy =           0.0000000000000000
    PCM Polarization Energy =               0.0000000000000000
    EFP Energy =                            0.0000000000000000
    Total Energy =                       -343.4183795596977689

    Alert: EFP and PCM quantities not currently incorporated into SCF psivars.

Properties will be evaluated at   0.000000,   0.000000,   0.000000 Bohr
  ==> Properties <==


Properties computed using the SCF density matrix

  Nuclear Dipole Moment: (a.u.)
     X:     4.2691      Y:     0.9959      Z:    -0.0250

  Electronic Dipole Moment: (a.u.)
     X:    -3.2100      Y:    -0.3340      Z:     0.0226

  Dipole Moment: (a.u.)
     X:     1.0592      Y:     0.6619      Z:    -0.0023     Total:     1.2490

  Dipole Moment: (Debye)
     X:     2.6922      Y:     1.6824      Z:    -0.0059     Total:     3.1746


  Saving occupied orbitals to File 180.

*** tstop() called on cx1-3-6-1.cx1.hpc.ic.ac.uk at Tue Jul  5 16:27:29 2016
Module time:
	user time   =       9.12 seconds =       0.15 minutes
	system time =       0.07 seconds =       0.00 minutes
	total time  =          9 seconds =       0.15 minutes
Total time:
	user time   =       9.12 seconds =       0.15 minutes
	system time =       0.07 seconds =       0.00 minutes
	total time  =          9 seconds =       0.15 minutes


Properties will be evaluated at   0.000000,   0.000000,   0.000000 Bohr

Properties computed using the  density matrix

  Nuclear Dipole Moment: (a.u.)
     X:     4.2691      Y:     0.9959      Z:    -0.0250

  Electronic Dipole Moment: (a.u.)
     X:    -3.2100      Y:    -0.3340      Z:     0.0226

  Dipole Moment: (a.u.)
     X:     1.0592      Y:     0.6619      Z:    -0.0023     Total:     1.2490

  Dipole Moment: (Debye)
     X:     2.6922      Y:     1.6824      Z:    -0.0059     Total:     3.1746

  Quadrupole Moment: (Debye Ang)
    XX:   -50.6655     YY:   -48.8435     ZZ:   -40.1335
    XY:    -5.7560     XZ:    -0.0243     YZ:     0.0161

  Traceless Quadrupole Moment: (Debye Ang)
    XX:    -4.1180     YY:    -2.2960     ZZ:     6.4140
    XY:    -5.7560     XZ:    -0.0243     YZ:     0.0161

  Mulliken Charges: (a.u.)
   Center  Symbol    Alpha    Beta     Spin     Total
       1     H     0.39643  0.39643  0.00000  0.20715
       2     C     3.09931  3.09931  0.00000 -0.19862
       3     C     3.09757  3.09757  0.00000 -0.19514
       4     C     3.09719  3.09719  0.00000 -0.19437
       5     H     0.39480  0.39480  0.00000  0.21040
       6     C     3.10304  3.10304  0.00000 -0.20608
       7     H     0.39455  0.39455  0.00000  0.21090
       8     C     3.10428  3.10428  0.00000 -0.20857
       9     H     0.39172  0.39172  0.00000  0.21657
      10     C     3.02822  3.02822  0.00000 -0.05645
      11     H     0.39205  0.39205  0.00000  0.21589
      12     C     2.85481  2.85481  0.00000  0.29038
      13     O     4.22229  4.22229  0.00000 -0.44459
      14     H     0.42374  0.42374  0.00000  0.15252

   Total alpha = 28.00000, Total beta = 28.00000, Total charge = -0.00000


*** PSI4 exiting successfully. Buy a developer a beer!
