    -----------------------------------------------------------------------
          Psi4: An Open-Source Ab Initio Electronic Structure Package
                              Psi4 (no tag) Driver

                          Git: Rev {detached?}  

    J. M. Turney, A. C. Simmonett, R. M. Parrish, E. G. Hohenstein,
    F. A. Evangelista, J. T. Fermann, B. J. Mintz, L. A. Burns, J. J. Wilke,
    M. L. Abrams, N. J. Russ, M. L. Leininger, C. L. Janssen, E. T. Seidl,
    W. D. Allen, H. F. Schaefer, R. A. King, E. F. Valeev, C. D. Sherrill,
    and T. D. Crawford, WIREs Comput. Mol. Sci. 2, 556-565 (2012)
    (doi: 10.1002/wcms.93)

                         Additional Contributions by
    A. E. DePrince, M. Saitow, U. Bozkaya, A. Yu. Sokolov
    -----------------------------------------------------------------------


    Psi4 started on: Tue Jul  5 16:28:28 2016

    Process ID:  20802
    PSI4DATADIR: /export131/home/mjharvey/miniconda3/share
    Memory level set to 256.000 MB

  ==> Input File <==

--------------------------------------------------------------------------
set {
	reference rhf
	basis 6-31G*
}


set_num_threads( 1 )
memory 2 gb

molecule MOL {
0 1

H	 -0.944757	 -0.000069	 1.678017
O	 -0.042387	 -0.000390	 1.388199
C	 -0.001487	 0.000018	 -0.026623
C	 1.261651	 0.720434	 -0.502147
C	 -0.032699	 -1.440771	 -0.540234
C	 -1.251747	 0.756471	 -0.461424
H	 1.302489	 0.774977	 -1.585316
H	 2.154225	 0.199091	 -0.163886
H	 1.290743	 1.728824	 -0.104251
H	 -0.042445	 -1.474387	 -1.625068
H	 0.841938	 -1.990883	 -0.200648
H	 -0.915016	 -1.951712	 -0.170999
H	 -1.314916	 0.813999	 -1.543295
H	 -1.237913	 1.764119	 -0.061495
H	 -2.139564	 0.258033	 -0.088956

	symmetry c1
}
ee = energy('scf')
oeprop('DIPOLE', 'QUADRUPOLE', 'MULLIKEN_CHARGES')
f=open( 'psi4out.xyz', 'w' )
f.write( "15  " )
f.write( str(ee) + "\n" )
f.write( MOL.save_string_xyz() )
f.close()
--------------------------------------------------------------------------

  Memory set to   2.000 GiB by Python script.

*** tstart() called on cx1-3-15-2.cx1.hpc.ic.ac.uk
*** at Tue Jul  5 16:28:28 2016


         ---------------------------------------------------------
                                   SCF
            by Justin Turney, Rob Parrish, and Andy Simmonett
                              RHF Reference
                        1 Threads,   2000 MiB Core
         ---------------------------------------------------------

  ==> Geometry <==

    Molecular point group: c1
    Full point group: C1

    Geometry (in Angstrom), charge = 0, multiplicity = 1:

       Center              X                  Y                   Z               Mass       
    ------------   -----------------  -----------------  -----------------  -----------------
           H         -0.917993700565    -0.007501280976     1.678788659859     1.007825032070
           O         -0.015623700565    -0.007822280976     1.388970659859    15.994914619560
           C          0.025276299435    -0.007414280976    -0.025851340141    12.000000000000
           C          1.288414299435     0.713001719024    -0.501375340141    12.000000000000
           C         -0.005935700565    -1.448203280976    -0.539462340141    12.000000000000
           C         -1.224983700565     0.749038719024    -0.460652340141    12.000000000000
           H          1.329252299435     0.767544719024    -1.584544340141     1.007825032070
           H          2.180988299435     0.191658719024    -0.163114340141     1.007825032070
           H          1.317506299435     1.721391719024    -0.103479340141     1.007825032070
           H         -0.015681700565    -1.481819280976    -1.624296340141     1.007825032070
           H          0.868701299435    -1.998315280976    -0.199876340141     1.007825032070
           H         -0.888252700565    -1.959144280976    -0.170227340141     1.007825032070
           H         -1.288152700565     0.806566719024    -1.542523340141     1.007825032070
           H         -1.211149700565     1.756686719024    -0.060723340141     1.007825032070
           H         -2.112800700565     0.250600719024    -0.088184340141     1.007825032070

  Running in c1 symmetry.

  Rotational constants: A =      0.16121  B =      0.15806  C =      0.14858 [cm^-1]
  Rotational constants: A =   4833.01496  B =   4738.45750  C =   4454.36164 [MHz]
  Nuclear repulsion =  200.453404429483157

  Charge       = 0
  Multiplicity = 1
  Electrons    = 42
  Nalpha       = 21
  Nbeta        = 21

  ==> Algorithm <==

  SCF Algorithm Type is DF.
  DIIS enabled.
  MOM disabled.
  Fractional occupation disabled.
  Guess Type is CORE.
  Energy threshold   = 1.00e-06
  Density threshold  = 1.00e-06
  Integral threshold = 0.00e+00

  ==> Primary Basis <==

  Basis Set: 6-31G*
    Number of shells: 50
    Number of basis function: 95
    Number of Cartesian functions: 95
    Spherical Harmonics?: false
    Max angular momentum: 2

  ==> Pre-Iterations <==

   -------------------------------------------------------
    Irrep   Nso     Nmo     Nalpha   Nbeta   Ndocc  Nsocc
   -------------------------------------------------------
     A         95      95       0       0       0       0
   -------------------------------------------------------
    Total      95      95      21      21      21       0
   -------------------------------------------------------

 OEINTS: Overlap, kinetic, potential, dipole, and quadrupole integrals
         stored in file 35.

  ==> Integral Setup <==

  ==> DFJK: Density-Fitted J/K Matrices <==

    J tasked:                  Yes
    K tasked:                  Yes
    wK tasked:                  No
    OpenMP threads:              1
    Integrals threads:           1
    Memory (MB):              1430
    Algorithm:                Core
    Integral Cache:           NONE
    Schwarz Cutoff:          1E-12
    Fitting Condition:       1E-12

   => Auxiliary Basis Set <=

  Basis Set: 
    Number of shells: 210
    Number of basis function: 655
    Number of Cartesian functions: 655
    Spherical Harmonics?: false
    Max angular momentum: 3

  Minimum eigenvalue in the overlap matrix is 3.2986312024E-03.
  Using Symmetric Orthogonalization.
  SCF Guess: Core (One-Electron) Hamiltonian.

  ==> Iterations <==

                           Total Energy        Delta E     RMS |[F,P]|

   @DF-RHF iter   1:  -175.13983889257906   -1.75140e+02   1.02046e-01 
   @DF-RHF iter   2:  -187.14670861773789   -1.20069e+01   4.70904e-02 DIIS
   @DF-RHF iter   3:  -188.86481379402096   -1.71811e+00   7.45055e-02 DIIS
   @DF-RHF iter   4:  -218.82568566942120   -2.99609e+01   4.59737e-02 DIIS
   @DF-RHF iter   5:  -227.98332537815088   -9.15764e+00   3.03026e-02 DIIS
   @DF-RHF iter   6:  -229.60098085520872   -1.61766e+00   2.32478e-02 DIIS
   @DF-RHF iter   7:  -231.36394874814118   -1.76297e+00   1.25995e-02 DIIS
   @DF-RHF iter   8:  -232.07392857231696   -7.09980e-01   3.63786e-03 DIIS
   @DF-RHF iter   9:  -232.13392530602778   -5.99967e-02   1.80233e-03 DIIS
   @DF-RHF iter  10:  -232.14922902837134   -1.53037e-02   3.22599e-04 DIIS
   @DF-RHF iter  11:  -232.14977547450223   -5.46446e-04   8.25339e-05 DIIS
   @DF-RHF iter  12:  -232.14984589151345   -7.04170e-05   2.82373e-05 DIIS
   @DF-RHF iter  13:  -232.14985105244136   -5.16093e-06   5.38662e-06 DIIS
   @DF-RHF iter  14:  -232.14985128277340   -2.30332e-07   1.16421e-06 DIIS
   @DF-RHF iter  15:  -232.14985129555600   -1.27826e-08   2.98330e-07 DIIS

  ==> Post-Iterations <==

    Orbital Energies (a.u.)
    -----------------------

    Doubly Occupied:                                                      

       1A    -20.546364     2A    -11.282332     3A    -11.214343  
       4A    -11.208554     5A    -11.207321     6A     -1.360190  
       7A     -1.063119     8A     -0.945145     9A     -0.937539  
      10A     -0.776943    11A     -0.666663    12A     -0.626526  
      13A     -0.621682    14A     -0.577847    15A     -0.556003  
      16A     -0.535874    17A     -0.517681    18A     -0.509288  
      19A     -0.502762    20A     -0.454032    21A     -0.423590  

    Virtual:                                                              

      22A      0.208156    23A      0.264450    24A      0.278581  
      25A      0.303886    26A      0.306016    27A      0.313877  
      28A      0.321922    29A      0.354647    30A      0.358927  
      31A      0.379920    32A      0.386839    33A      0.428854  
      34A      0.433084    35A      0.455524    36A      0.706769  
      37A      0.709012    38A      0.766162    39A      0.789380  
      40A      0.798758    41A      0.873142    42A      0.901952  
      43A      0.920422    44A      0.931053    45A      0.999575  
      46A      1.002919    47A      1.090123    48A      1.126237  
      49A      1.143425    50A      1.163274    51A      1.174763  
      52A      1.183620    53A      1.193602    54A      1.215099  
      55A      1.217524    56A      1.225513    57A      1.258215  
      58A      1.264158    59A      1.317086    60A      1.345566  
      61A      1.470883    62A      1.624802    63A      1.655871  
      64A      1.686699    65A      1.708507    66A      1.799888  
      67A      2.014144    68A      2.022817    69A      2.043265  
      70A      2.093943    71A      2.151523    72A      2.178844  
      73A      2.221323    74A      2.260482    75A      2.406866  
      76A      2.423553    77A      2.475003    78A      2.550713  
      79A      2.569815    80A      2.574279    81A      2.602356  
      82A      2.619475    83A      2.632228    84A      2.725881  
      85A      2.811069    86A      2.971907    87A      3.002396  
      88A      3.077304    89A      3.101577    90A      3.271483  
      91A      4.228321    92A      4.623059    93A      4.741540  
      94A      4.742959    95A      5.065484  

    Final Occupation by Irrep:
              A 
    DOCC [    21 ]

  Energy converged.

  @DF-RHF Final Energy:  -232.14985129555600

   => Energetics <=

    Nuclear Repulsion Energy =            200.4534044294831574
    One-Electron Energy =                -712.1388082232278975
    Two-Electron Energy =                 279.5355524981888493
    DFT Exchange-Correlation Energy =       0.0000000000000000
    Empirical Dispersion Energy =           0.0000000000000000
    PCM Polarization Energy =               0.0000000000000000
    EFP Energy =                            0.0000000000000000
    Total Energy =                       -232.1498512955558908

    Alert: EFP and PCM quantities not currently incorporated into SCF psivars.

Properties will be evaluated at   0.000000,   0.000000,   0.000000 Bohr
  ==> Properties <==


Properties computed using the SCF density matrix

  Nuclear Dipole Moment: (a.u.)
     X:    -0.6915      Y:     0.0447      Z:    -3.6103

  Electronic Dipole Moment: (a.u.)
     X:     0.1712      Y:    -0.0094      Z:     3.1904

  Dipole Moment: (a.u.)
     X:    -0.5203      Y:     0.0352      Z:    -0.4199     Total:     0.6695

  Dipole Moment: (Debye)
     X:    -1.3225      Y:     0.0896      Z:    -1.0672     Total:     1.7017


  Saving occupied orbitals to File 180.

*** tstop() called on cx1-3-15-2.cx1.hpc.ic.ac.uk at Tue Jul  5 16:28:35 2016
Module time:
	user time   =       6.16 seconds =       0.10 minutes
	system time =       0.05 seconds =       0.00 minutes
	total time  =          7 seconds =       0.12 minutes
Total time:
	user time   =       6.16 seconds =       0.10 minutes
	system time =       0.05 seconds =       0.00 minutes
	total time  =          7 seconds =       0.12 minutes


Properties will be evaluated at   0.000000,   0.000000,   0.000000 Bohr

Properties computed using the  density matrix

  Nuclear Dipole Moment: (a.u.)
     X:    -0.6915      Y:     0.0447      Z:    -3.6103

  Electronic Dipole Moment: (a.u.)
     X:     0.1712      Y:    -0.0094      Z:     3.1904

  Dipole Moment: (a.u.)
     X:    -0.5203      Y:     0.0352      Z:    -0.4199     Total:     0.6695

  Dipole Moment: (Debye)
     X:    -1.3225      Y:     0.0896      Z:    -1.0672     Total:     1.7017

  Quadrupole Moment: (Debye Ang)
    XX:   -31.6416     YY:   -33.5925     ZZ:   -34.6054
    XY:    -0.0054     XZ:    -3.1143     YZ:    -0.0509

  Traceless Quadrupole Moment: (Debye Ang)
    XX:     1.6382     YY:    -0.3127     ZZ:    -1.3255
    XY:    -0.0054     XZ:    -3.1143     YZ:    -0.0509

  Mulliken Charges: (a.u.)
   Center  Symbol    Alpha    Beta     Spin     Total
       1     H     0.28051  0.28051  0.00000  0.43899
       2     O     4.38045  4.38045  0.00000 -0.76091
       3     C     2.84595  2.84595  0.00000  0.30810
       4     C     3.23661  3.23661  0.00000 -0.47322
       5     C     3.23373  3.23373  0.00000 -0.46746
       6     C     3.25365  3.25365  0.00000 -0.50729
       7     H     0.42219  0.42219  0.00000  0.15561
       8     H     0.41361  0.41361  0.00000  0.17278
       9     H     0.41458  0.41458  0.00000  0.17085
      10     H     0.42439  0.42439  0.00000  0.15122
      11     H     0.41377  0.41377  0.00000  0.17245
      12     H     0.42395  0.42395  0.00000  0.15209
      13     H     0.41882  0.41882  0.00000  0.16235
      14     H     0.41231  0.41231  0.00000  0.17539
      15     H     0.42547  0.42547  0.00000  0.14906

   Total alpha = 21.00000, Total beta = 21.00000, Total charge = -0.00000


*** PSI4 exiting successfully. Buy a developer a beer!
