
    -----------------------------------------------------------------------
          Psi4: An Open-Source Ab Initio Electronic Structure Package
                               Psi4 1.1 release

                         Git: Rev {HEAD} add49b9 


    R. M. Parrish, L. A. Burns, D. G. A. Smith, A. C. Simmonett,
    A. E. DePrince III, E. G. Hohenstein, U. Bozkaya, A. Yu. Sokolov,
    R. Di Remigio, R. M. Richard, J. F. Gonthier, A. M. James,
    H. R. McAlexander, A. Kumar, M. Saitow, X. Wang, B. P. Pritchard,
    P. Verma, H. F. Schaefer III, K. Patkowski, R. A. King, E. F. Valeev,
    F. A. Evangelista, J. M. Turney, T. D. Crawford, and C. D. Sherrill,
    J. Chem. Theory Comput. in press (2017).
    (doi: 10.1021/acs.jctc.7b00174)

    -----------------------------------------------------------------------


    Psi4 started on: Friday, 09 March 2018 11:15AM

    Process ID:  19498
    PSIDATADIR: /home/sdoerr/miniconda3/share/psi4
    Memory:     500.0 MiB
    Threads:    1
    
  ==> Input File <==

--------------------------------------------------------------------------
set_num_threads(1)
set_memory('2004 MB')

set { scf_mem_safety_factor 0.7 }

set { reference rks }
set { basis cc-pVDZ }

molecule MOL {
    0 1
    noreorient
    nocom
    symmetry c1
    O    1.141000   0.017000   0.083000
    C    2.558000   0.086000  -0.005000
    C    3.192000  -0.789000   1.067000
    O    4.610000  -0.719000   0.979000
    H    0.789000   0.590000  -0.620000
    H    2.874000   1.128000   0.115000
    H    2.871000  -0.243000  -1.001000
    H    2.876000  -1.830000   0.947000
    H    2.879000  -0.459000   2.064000
    H    4.817724  -0.400377   0.083335
}

set optking { frozen_dihedral = (" 2 3 4 10 ") }

energy, wfn = energy('B3LYP-D3', return_wfn=True)

import os
os.chdir(os.environ['HTMD_PSI4_WORKDIR'])

oeprop(wfn, 'DIPOLE', 'QUADRUPOLE', 'MULLIKEN_CHARGES')

with open('psi4out.xyz', 'w') as f:
    f.write('10 ' )
    f.write('%.12f\n' % energy)
    f.write(MOL.save_string_xyz())
--------------------------------------------------------------------------
  Threads set to 1 by Python driver.

  Memory set to   1.866 GiB by Python driver.

*** tstart() called on computer03
*** at Fri Mar  9 11:15:08 2018

   => Loading Basis Set <=

    Name: CC-PVDZ
    Role: ORBITAL
    Keyword: BASIS
    atoms 1, 4 entry O          line   190 file /home/sdoerr/miniconda3/share/psi4/basis/cc-pvdz.gbs 
    atoms 2-3  entry C          line   130 file /home/sdoerr/miniconda3/share/psi4/basis/cc-pvdz.gbs 
    atoms 5-10 entry H          line    20 file /home/sdoerr/miniconda3/share/psi4/basis/cc-pvdz.gbs 


         ---------------------------------------------------------
                                   SCF
            by Justin Turney, Rob Parrish, and Andy Simmonett
                              RKS Reference
                        1 Threads,   1911 MiB Core
         ---------------------------------------------------------

  ==> Geometry <==

    Molecular point group: c1
    Full point group: C1

    Geometry (in Angstrom), charge = 0, multiplicity = 1:

       Center              X                  Y                   Z               Mass       
    ------------   -----------------  -----------------  -----------------  -----------------
           O          1.141000000000     0.017000000000     0.083000000000    15.994914619560
           C          2.558000000000     0.086000000000    -0.005000000000    12.000000000000
           C          3.192000000000    -0.789000000000     1.067000000000    12.000000000000
           O          4.610000000000    -0.719000000000     0.979000000000    15.994914619560
           H          0.789000000000     0.590000000000    -0.620000000000     1.007825032070
           H          2.874000000000     1.128000000000     0.115000000000     1.007825032070
           H          2.871000000000    -0.243000000000    -1.001000000000     1.007825032070
           H          2.876000000000    -1.830000000000     0.947000000000     1.007825032070
           H          2.879000000000    -0.459000000000     2.064000000000     1.007825032070
           H          4.817724000000    -0.400377000000     0.083335000000     1.007825032070

  Running in c1 symmetry.

  Rotational constants: A =      0.81790  B =      0.02560  C =      0.02507 [cm^-1]
  Rotational constants: A =  24520.00696  B =    767.38937  C =    751.43074 [MHz]
  Nuclear repulsion =  130.112575549625944

  Charge       = 0
  Multiplicity = 1
  Electrons    = 34
  Nalpha       = 17
  Nbeta        = 17

  ==> Algorithm <==

  SCF Algorithm Type is DF.
  DIIS enabled.
  MOM disabled.
  Fractional occupation disabled.
  Guess Type is SAD.
  Energy threshold   = 1.00e-06
  Density threshold  = 1.00e-06
  Integral threshold = 0.00e+00

  ==> Primary Basis <==

  Basis Set: CC-PVDZ
    Blend: CC-PVDZ
    Number of shells: 42
    Number of basis function: 86
    Number of Cartesian functions: 90
    Spherical Harmonics?: true
    Max angular momentum: 2

  ==> DFT Potential <==

   => B3LYP Composite Functional <= 

    B3LYP Hybrid-GGA Exchange-Correlation Functional (VWN1-RPA)

    P.J. Stephens et. al., J. Phys. Chem., 98, 11623-11627, 1994

    Points   =           5000
    Deriv    =              1
    GGA      =           TRUE
    Meta     =          FALSE

    X_LRC        =          FALSE
    X_Hybrid     =           TRUE
    X_Alpha      =   2.000000E-01
    X_Omega      =   0.000000E+00
    C_LRC        =          FALSE
    C_Hybrid     =          FALSE
    C_Alpha      =   0.000000E+00
    C_Omega      =   0.000000E+00

   => Exchange Functionals <=

    0.8000    B3_X
    0.2000      HF 

   => Correlation Functionals <=

    0.1900 VWN3RPA_C
    0.8100   LYP_C

   => Molecular Quadrature <=

    Radial Scheme    =       TREUTLER
    Pruning Scheme   =           FLAT
    Nuclear Scheme   =       TREUTLER

    BS radius alpha  =              1
    Pruning alpha    =              1
    Radial Points    =             75
    Spherical Points =            302
    Total Points     =         222531
    Total Blocks     =            208
    Max Points       =           4922
    Max Functions    =             86

   => -D3ZERO: Empirical Dispersion <=

    Grimme's -D3 (zero-damping) Dispersion Correction
    Grimme S.; Antony J.; Ehrlich S.; Krieg H. (2010), J. Chem. Phys., 132: 154104

        S6 =   1.000000E+00
        S8 =   1.703000E+00
       SR6 =   1.261000E+00
    ALPHA6 =   1.400000E+01

   => Loading Basis Set <=

    Name: (CC-PVDZ AUX)
    Role: JKFIT
    Keyword: DF_BASIS_SCF
    atoms 1, 4 entry O          line   220 file /home/sdoerr/miniconda3/share/psi4/basis/cc-pvdz-jkfit.gbs 
    atoms 2-3  entry C          line   120 file /home/sdoerr/miniconda3/share/psi4/basis/cc-pvdz-jkfit.gbs 
    atoms 5-10 entry H          line    50 file /home/sdoerr/miniconda3/share/psi4/basis/cc-pvdz-jkfit.gbs 

  ==> Pre-Iterations <==

   -------------------------------------------------------
    Irrep   Nso     Nmo     Nalpha   Nbeta   Ndocc  Nsocc
   -------------------------------------------------------
     A         86      86       0       0       0       0
   -------------------------------------------------------
    Total      86      86      17      17      17       0
   -------------------------------------------------------

  ==> Integral Setup <==

  ==> DFJK: Density-Fitted J/K Matrices <==

    J tasked:                  Yes
    K tasked:                  Yes
    wK tasked:                  No
    OpenMP threads:              1
    Integrals threads:           1
    Memory (MB):              1337
    Algorithm:                Core
    Integral Cache:           NONE
    Schwarz Cutoff:          1E-12
    Fitting Condition:       1E-12

   => Auxiliary Basis Set <=

  Basis Set: (CC-PVDZ AUX)
    Blend: CC-PVDZ-JKFIT
    Number of shells: 150
    Number of basis function: 418
    Number of Cartesian functions: 474
    Spherical Harmonics?: true
    Max angular momentum: 3

  Minimum eigenvalue in the overlap matrix is 4.9849502458E-03.
  Using Symmetric Orthogonalization.

  SCF Guess: Superposition of Atomic Densities via on-the-fly atomic UHF.

  ==> Iterations <==

                           Total Energy        Delta E     RMS |[F,P]|

   @DF-RKS iter   0:  -231.01685315676502   -2.31017e+02   4.11304e-02 
   @DF-RKS iter   1:  -230.16844324029785    8.48410e-01   5.48149e-03 
   @DF-RKS iter   2:  -230.10580431654432    6.26389e-02   7.47920e-03 DIIS
   @DF-RKS iter   3:  -230.25491470471070   -1.49110e-01   6.59307e-04 DIIS
   @DF-RKS iter   4:  -230.25612930367978   -1.21460e-03   2.24591e-04 DIIS
   @DF-RKS iter   5:  -230.25630844174509   -1.79138e-04   4.72514e-05 DIIS
   @DF-RKS iter   6:  -230.25631616953928   -7.72779e-06   6.61639e-06 DIIS
   @DF-RKS iter   7:  -230.25631625359085   -8.40516e-08   4.11542e-06 DIIS
   @DF-RKS iter   8:  -230.25631629812008   -4.45292e-08   5.20996e-07 DIIS

  ==> Post-Iterations <==

    Orbital Energies (a.u.)
    -----------------------

    Doubly Occupied:                                                      

       1A    -19.139117     2A    -19.133457     3A    -10.236591  
       4A    -10.226854     5A     -1.025454     6A     -1.012334  
       7A     -0.733456     8A     -0.625257     9A     -0.518355  
      10A     -0.489483    11A     -0.472913    12A     -0.424199  
      13A     -0.399088    14A     -0.354284    15A     -0.323795  
      16A     -0.272878    17A     -0.266133  

    Virtual:                                                              

      18A      0.039833    19A      0.052998    20A      0.099837  
      21A      0.109165    22A      0.124404    23A      0.164738  
      24A      0.200390    25A      0.230749    26A      0.242663  
      27A      0.432513    28A      0.438392    29A      0.495430  
      30A      0.527036    31A      0.554175    32A      0.579896  
      33A      0.600830    34A      0.620385    35A      0.633579  
      36A      0.652367    37A      0.652853    38A      0.672804  
      39A      0.874275    40A      0.884046    41A      0.911072  
      42A      0.973191    43A      1.025668    44A      1.049868  
      45A      1.054358    46A      1.140108    47A      1.178780  
      48A      1.206965    49A      1.248569    50A      1.301891  
      51A      1.336014    52A      1.373572    53A      1.507473  
      54A      1.538760    55A      1.587703    56A      1.615736  
      57A      1.642604    58A      1.650275    59A      1.658293  
      60A      1.679585    61A      1.722784    62A      1.775632  
      63A      1.794919    64A      1.866810    65A      1.902579  
      66A      1.973153    67A      2.044134    68A      2.055665  
      69A      2.129951    70A      2.141579    71A      2.256217  
      72A      2.282758    73A      2.406283    74A      2.430536  
      75A      2.479796    76A      2.511066    77A      2.923680  
      78A      2.932215    79A      3.013294    80A      3.014444  
      81A      3.067446    82A      3.086680    83A      3.184673  
      84A      3.261449    85A      3.667347    86A      3.692310  

    Final Occupation by Irrep:
              A 
    DOCC [    17 ]

  Energy converged.

  @DF-RKS Final Energy:  -230.25631629812008

   => Energetics <=

    Nuclear Repulsion Energy =            130.1125755496259444
    One-Electron Energy =                -571.7977677715904292
    Two-Electron Energy =                 235.9718734803084885
    DFT Exchange-Correlation Energy =     -24.5383583564640624
    Empirical Dispersion Energy =          -0.0046392000000000
    PCM Polarization Energy =               0.0000000000000000
    EFP Energy =                            0.0000000000000000
    Total Energy =                       -230.2563162981200833



Properties will be evaluated at   0.000000,   0.000000,   0.000000 Bohr

Properties computed using the SCF density matrix

  Nuclear Dipole Moment: (a.u.)
     X:   184.4651      Y:   -20.8784      Z:    31.0980

  Electronic Dipole Moment: (a.u.)
     X:  -184.6206      Y:    21.4031      Z:   -31.9922

  Dipole Moment: (a.u.)
     X:    -0.1555      Y:     0.5247      Z:    -0.8942     Total:     1.0484

  Dipole Moment: (Debye)
     X:    -0.3953      Y:     1.3337      Z:    -2.2729     Total:     2.6648


*** tstop() called on computer03 at Fri Mar  9 11:15:52 2018
Module time:
	user time   =      41.57 seconds =       0.69 minutes
	system time =       0.39 seconds =       0.01 minutes
	total time  =         44 seconds =       0.73 minutes
Total time:
	user time   =      41.57 seconds =       0.69 minutes
	system time =       0.39 seconds =       0.01 minutes
	total time  =         44 seconds =       0.73 minutes


Properties will be evaluated at   0.000000,   0.000000,   0.000000 Bohr

Properties computed using the  density matrix

  Nuclear Dipole Moment: (a.u.)
     X:   184.4651      Y:   -20.8784      Z:    31.0980

  Electronic Dipole Moment: (a.u.)
     X:  -184.6206      Y:    21.4031      Z:   -31.9922

  Dipole Moment: (a.u.)
     X:    -0.1555      Y:     0.5247      Z:    -0.8942     Total:     1.0484

  Dipole Moment: (Debye)
     X:    -0.3953      Y:     1.3337      Z:    -2.2729     Total:     2.6648

  Quadrupole Moment: (Debye Ang)
    XX:   -29.7955     YY:   -24.7806     ZZ:   -24.8614
    XY:     3.3612     XZ:    -7.6617     YZ:    -0.0215

  Traceless Quadrupole Moment: (Debye Ang)
    XX:    -3.3164     YY:     1.6986     ZZ:     1.6178
    XY:     3.3612     XZ:    -7.6617     YZ:    -0.0215

  Mulliken Charges: (a.u.)
   Center  Symbol    Alpha    Beta     Spin     Total
       1     O     4.13683  4.13683  0.00000 -0.27367
       2     C     2.95994  2.95994  0.00000  0.08013
       3     C     2.92028  2.92028  0.00000  0.15944
       4     O     4.13696  4.13696  0.00000 -0.27392
       5     H     0.42798  0.42798  0.00000  0.14404
       6     H     0.49836  0.49836  0.00000  0.00327
       7     H     0.50260  0.50260  0.00000 -0.00520
       8     H     0.49503  0.49503  0.00000  0.00995
       9     H     0.48910  0.48910  0.00000  0.02180
      10     H     0.43292  0.43292  0.00000  0.13416

   Total alpha = 17.00000, Total beta = 17.00000, Total charge =  0.00000


*** Psi4 exiting successfully. Buy a developer a beer!
