
    -----------------------------------------------------------------------
          Psi4: An Open-Source Ab Initio Electronic Structure Package
                               Psi4 1.1 release

                         Git: Rev {HEAD} add49b9 


    R. M. Parrish, L. A. Burns, D. G. A. Smith, A. C. Simmonett,
    A. E. DePrince III, E. G. Hohenstein, U. Bozkaya, A. Yu. Sokolov,
    R. Di Remigio, R. M. Richard, J. F. Gonthier, A. M. James,
    H. R. McAlexander, A. Kumar, M. Saitow, X. Wang, B. P. Pritchard,
    P. Verma, H. F. Schaefer III, K. Patkowski, R. A. King, E. F. Valeev,
    F. A. Evangelista, J. M. Turney, T. D. Crawford, and C. D. Sherrill,
    J. Chem. Theory Comput. in press (2017).
    (doi: 10.1021/acs.jctc.7b00174)

    -----------------------------------------------------------------------


    Psi4 started on: Tuesday, 12 December 2017 11:19AM

    Process ID:  27859
    PSIDATADIR: /shared/raimis/opt/miniconda/envs/htmd/share/psi4
    Memory:     500.0 MiB
    Threads:    1
    
  ==> Input File <==

--------------------------------------------------------------------------
set_num_threads(1)
set_memory(4203741184)

set { reference rks }
set { basis cc-pVDZ }

molecule MOL {
    0 1
    noreorient
    nocom
    symmetry c1
    O    1.050400   0.042900  -0.048100
    C    2.474100   0.047400  -0.029000
    C    3.002600  -1.068900  -0.932000
    N    4.462700  -1.072400  -1.006800
    H    0.758293   0.373663   0.818665
    H    2.809900  -0.097900   1.003200
    H    2.817400   1.026800  -0.378600
    H    2.581000  -0.963300  -1.938400
    H    2.653800  -2.036400  -0.553400
    H    4.779000  -0.221000  -1.470000
    H    4.758600  -1.842500  -1.606500
}

set optking { frozen_dihedral = (" 3 2 1 5 ") }

energy, wfn = energy('B3LYP-D3', return_wfn=True)

import os
os.chdir(os.environ['HTMD_PSI4_WORKDIR'])

oeprop(wfn, 'DIPOLE', 'QUADRUPOLE', 'MULLIKEN_CHARGES')

with open('psi4out.xyz', 'w') as f:
    f.write('11 ' )
    f.write('%.12f\n' % energy)
    f.write(MOL.save_string_xyz())
--------------------------------------------------------------------------
  Threads set to 1 by Python driver.

  Memory set to   3.915 GiB by Python driver.

*** tstart() called on computer06
*** at Tue Dec 12 11:19:34 2017

   => Loading Basis Set <=

    Name: CC-PVDZ
    Role: ORBITAL
    Keyword: BASIS
    atoms 1    entry O          line   190 file /shared/raimis/opt/miniconda/envs/htmd/share/psi4/basis/cc-pvdz.gbs 
    atoms 2-3  entry C          line   130 file /shared/raimis/opt/miniconda/envs/htmd/share/psi4/basis/cc-pvdz.gbs 
    atoms 4    entry N          line   160 file /shared/raimis/opt/miniconda/envs/htmd/share/psi4/basis/cc-pvdz.gbs 
    atoms 5-11 entry H          line    20 file /shared/raimis/opt/miniconda/envs/htmd/share/psi4/basis/cc-pvdz.gbs 


         ---------------------------------------------------------
                                   SCF
            by Justin Turney, Rob Parrish, and Andy Simmonett
                              RKS Reference
                        1 Threads,   4009 MiB Core
         ---------------------------------------------------------

  ==> Geometry <==

    Molecular point group: c1
    Full point group: C1

    Geometry (in Angstrom), charge = 0, multiplicity = 1:

       Center              X                  Y                   Z               Mass       
    ------------   -----------------  -----------------  -----------------  -----------------
           O          1.050400000000     0.042900000000    -0.048100000000    15.994914619560
           C          2.474100000000     0.047400000000    -0.029000000000    12.000000000000
           C          3.002600000000    -1.068900000000    -0.932000000000    12.000000000000
           N          4.462700000000    -1.072400000000    -1.006800000000    14.003074004780
           H          0.758293000000     0.373663000000     0.818665000000     1.007825032070
           H          2.809900000000    -0.097900000000     1.003200000000     1.007825032070
           H          2.817400000000     1.026800000000    -0.378600000000     1.007825032070
           H          2.581000000000    -0.963300000000    -1.938400000000     1.007825032070
           H          2.653800000000    -2.036400000000    -0.553400000000     1.007825032070
           H          4.779000000000    -0.221000000000    -1.470000000000     1.007825032070
           H          4.758600000000    -1.842500000000    -1.606500000000     1.007825032070

  Running in c1 symmetry.

  Rotational constants: A =      0.72395  B =      0.02762  C =      0.02696 [cm^-1]
  Rotational constants: A =  21703.33387  B =    828.15685  C =    808.25977 [MHz]
  Nuclear repulsion =  130.440006375486661

  Charge       = 0
  Multiplicity = 1
  Electrons    = 34
  Nalpha       = 17
  Nbeta        = 17

  ==> Algorithm <==

  SCF Algorithm Type is DF.
  DIIS enabled.
  MOM disabled.
  Fractional occupation disabled.
  Guess Type is SAD.
  Energy threshold   = 1.00e-06
  Density threshold  = 1.00e-06
  Integral threshold = 0.00e+00

  ==> Primary Basis <==

  Basis Set: CC-PVDZ
    Blend: CC-PVDZ
    Number of shells: 45
    Number of basis function: 91
    Number of Cartesian functions: 95
    Spherical Harmonics?: true
    Max angular momentum: 2

  ==> DFT Potential <==

   => B3LYP Composite Functional <= 

    B3LYP Hybrid-GGA Exchange-Correlation Functional (VWN1-RPA)

    P.J. Stephens et. al., J. Phys. Chem., 98, 11623-11627, 1994

    Points   =           5000
    Deriv    =              1
    GGA      =           TRUE
    Meta     =          FALSE

    X_LRC        =          FALSE
    X_Hybrid     =           TRUE
    X_Alpha      =   2.000000E-01
    X_Omega      =   0.000000E+00
    C_LRC        =          FALSE
    C_Hybrid     =          FALSE
    C_Alpha      =   0.000000E+00
    C_Omega      =   0.000000E+00

   => Exchange Functionals <=

    0.8000    B3_X
    0.2000      HF 

   => Correlation Functionals <=

    0.1900 VWN3RPA_C
    0.8100   LYP_C

   => Molecular Quadrature <=

    Radial Scheme    =       TREUTLER
    Pruning Scheme   =           FLAT
    Nuclear Scheme   =       TREUTLER

    BS radius alpha  =              1
    Pruning alpha    =              1
    Radial Points    =             75
    Spherical Points =            302
    Total Points     =         245082
    Total Blocks     =            222
    Max Points       =           4959
    Max Functions    =             91

   => -D3ZERO: Empirical Dispersion <=

    Grimme's -D3 (zero-damping) Dispersion Correction
    Grimme S.; Antony J.; Ehrlich S.; Krieg H. (2010), J. Chem. Phys., 132: 154104

        S6 =   1.000000E+00
        S8 =   1.703000E+00
       SR6 =   1.261000E+00
    ALPHA6 =   1.400000E+01

   => Loading Basis Set <=

    Name: (CC-PVDZ AUX)
    Role: JKFIT
    Keyword: DF_BASIS_SCF
    atoms 1    entry O          line   220 file /shared/raimis/opt/miniconda/envs/htmd/share/psi4/basis/cc-pvdz-jkfit.gbs 
    atoms 2-3  entry C          line   120 file /shared/raimis/opt/miniconda/envs/htmd/share/psi4/basis/cc-pvdz-jkfit.gbs 
    atoms 4    entry N          line   170 file /shared/raimis/opt/miniconda/envs/htmd/share/psi4/basis/cc-pvdz-jkfit.gbs 
    atoms 5-11 entry H          line    50 file /shared/raimis/opt/miniconda/envs/htmd/share/psi4/basis/cc-pvdz-jkfit.gbs 

  ==> Pre-Iterations <==

   -------------------------------------------------------
    Irrep   Nso     Nmo     Nalpha   Nbeta   Ndocc  Nsocc
   -------------------------------------------------------
     A         91      91       0       0       0       0
   -------------------------------------------------------
    Total      91      91      17      17      17       0
   -------------------------------------------------------

  ==> Integral Setup <==

  ==> DFJK: Density-Fitted J/K Matrices <==

    J tasked:                  Yes
    K tasked:                  Yes
    wK tasked:                  No
    OpenMP threads:              1
    Integrals threads:           1
    Memory (MB):              3006
    Algorithm:                Core
    Integral Cache:           NONE
    Schwarz Cutoff:          1E-12
    Fitting Condition:       1E-12

   => Auxiliary Basis Set <=

  Basis Set: (CC-PVDZ AUX)
    Blend: CC-PVDZ-JKFIT
    Number of shells: 159
    Number of basis function: 441
    Number of Cartesian functions: 499
    Spherical Harmonics?: true
    Max angular momentum: 3

  Minimum eigenvalue in the overlap matrix is 4.5673934278E-03.
  Using Symmetric Orthogonalization.

  SCF Guess: Superposition of Atomic Densities via on-the-fly atomic UHF.

  ==> Iterations <==

                           Total Energy        Delta E     RMS |[F,P]|

   @DF-RKS iter   0:  -210.77176061259490   -2.10772e+02   3.61984e-02 
   @DF-RKS iter   1:  -210.20222635390741    5.69534e-01   7.27775e-03 
   @DF-RKS iter   2:  -210.04758077526688    1.54646e-01   9.95176e-03 DIIS
   @DF-RKS iter   3:  -210.38982061922380   -3.42240e-01   5.72619e-04 DIIS
   @DF-RKS iter   4:  -210.39047166798258   -6.51049e-04   3.71066e-04 DIIS
   @DF-RKS iter   5:  -210.39096173241896   -4.90064e-04   4.80565e-05 DIIS
   @DF-RKS iter   6:  -210.39096789433589   -6.16192e-06   2.32743e-05 DIIS
   @DF-RKS iter   7:  -210.39096986937611   -1.97504e-06   2.02459e-06 DIIS
   @DF-RKS iter   8:  -210.39096988367942   -1.43033e-08   6.67242e-07 DIIS

  ==> Post-Iterations <==

    Orbital Energies (a.u.)
    -----------------------

    Doubly Occupied:                                                      

       1A    -19.127296     2A    -14.304317     3A    -10.223933  
       4A    -10.200819     5A     -1.009763     6A     -0.876237  
       7A     -0.711654     8A     -0.597581     9A     -0.508056  
      10A     -0.485400    11A     -0.448540    12A     -0.421247  
      13A     -0.387823    14A     -0.361207    15A     -0.323602  
      16A     -0.261894    17A     -0.230488  

    Virtual:                                                              

      18A      0.049725    19A      0.058304    20A      0.100142  
      21A      0.121131    22A      0.126033    23A      0.152085  
      24A      0.169399    25A      0.206481    26A      0.244764  
      27A      0.258711    28A      0.438450    29A      0.450429  
      30A      0.484135    31A      0.501723    32A      0.568207  
      33A      0.582318    34A      0.608406    35A      0.613284  
      36A      0.639238    37A      0.646814    38A      0.658361  
      39A      0.678661    40A      0.701740    41A      0.815225  
      42A      0.834208    43A      0.846563    44A      0.916915  
      45A      0.964637    46A      0.997464    47A      1.017744  
      48A      1.061492    49A      1.175165    50A      1.210550  
      51A      1.219118    52A      1.257120    53A      1.305052  
      54A      1.384125    55A      1.425707    56A      1.484203  
      57A      1.512726    58A      1.606536    59A      1.620252  
      60A      1.626514    61A      1.655912    62A      1.673311  
      63A      1.710447    64A      1.737705    65A      1.753270  
      66A      1.773925    67A      1.801386    68A      1.864206  
      69A      1.881333    70A      1.962023    71A      1.990297  
      72A      2.025617    73A      2.038578    74A      2.132060  
      75A      2.163638    76A      2.245906    77A      2.280672  
      78A      2.367885    79A      2.398647    80A      2.444893  
      81A      2.471311    82A      2.549436    83A      2.606356  
      84A      2.686832    85A      2.825435    86A      2.944435  
      87A      3.024541    88A      3.041451    89A      3.120286  
      90A      3.209043    91A      3.689292  

    Final Occupation by Irrep:
              A 
    DOCC [    17 ]

  Energy converged.

  @DF-RKS Final Energy:  -210.39096988367942

   => Energetics <=

    Nuclear Repulsion Energy =            130.4400063754866608
    One-Electron Energy =                -543.8201073406313526
    Two-Electron Energy =                 226.4806694131915208
    DFT Exchange-Correlation Energy =     -23.4866166017262152
    Empirical Dispersion Energy =          -0.0049217300000000
    PCM Polarization Energy =               0.0000000000000000
    EFP Energy =                            0.0000000000000000
    Total Energy =                       -210.3909698836794178



Properties will be evaluated at   0.000000,   0.000000,   0.000000 Bohr

Properties computed using the SCF density matrix

  Nuclear Dipole Moment: (a.u.)
     X:   176.9923      Y:   -32.2259      Z:   -32.7365

  Electronic Dipole Moment: (a.u.)
     X:  -176.8182      Y:    32.4037      Z:    32.7526

  Dipole Moment: (a.u.)
     X:     0.1741      Y:     0.1778      Z:     0.0160     Total:     0.2494

  Dipole Moment: (Debye)
     X:     0.4426      Y:     0.4518      Z:     0.0407     Total:     0.6338


*** tstop() called on computer06 at Tue Dec 12 11:19:57 2017
Module time:
	user time   =      22.25 seconds =       0.37 minutes
	system time =       0.18 seconds =       0.00 minutes
	total time  =         23 seconds =       0.38 minutes
Total time:
	user time   =      22.25 seconds =       0.37 minutes
	system time =       0.18 seconds =       0.00 minutes
	total time  =         23 seconds =       0.38 minutes


Properties will be evaluated at   0.000000,   0.000000,   0.000000 Bohr

Properties computed using the  density matrix

  Nuclear Dipole Moment: (a.u.)
     X:   176.9923      Y:   -32.2259      Z:   -32.7365

  Electronic Dipole Moment: (a.u.)
     X:  -176.8182      Y:    32.4037      Z:    32.7526

  Dipole Moment: (a.u.)
     X:     0.1741      Y:     0.1778      Z:     0.0160     Total:     0.2494

  Dipole Moment: (Debye)
     X:     0.4426      Y:     0.4518      Z:     0.0407     Total:     0.6338

  Quadrupole Moment: (Debye Ang)
    XX:   -25.3301     YY:   -24.2343     ZZ:   -21.7485
    XY:     0.7074     XZ:    -5.8838     YZ:     2.0991

  Traceless Quadrupole Moment: (Debye Ang)
    XX:    -1.5591     YY:    -0.4634     ZZ:     2.0224
    XY:     0.7074     XZ:    -5.8838     YZ:     2.0991

  Mulliken Charges: (a.u.)
   Center  Symbol    Alpha    Beta     Spin     Total
       1     O     4.13942  4.13942  0.00000 -0.27884
       2     C     2.93034  2.93034  0.00000  0.13933
       3     C     2.98433  2.98433  0.00000  0.03133
       4     N     3.59407  3.59407  0.00000 -0.18814
       5     H     0.42919  0.42919  0.00000  0.14162
       6     H     0.49819  0.49819  0.00000  0.00363
       7     H     0.50264  0.50264  0.00000 -0.00527
       8     H     0.50041  0.50041  0.00000 -0.00081
       9     H     0.49219  0.49219  0.00000  0.01563
      10     H     0.46564  0.46564  0.00000  0.06873
      11     H     0.46360  0.46360  0.00000  0.07280

   Total alpha = 17.00000, Total beta = 17.00000, Total charge =  0.00000


*** Psi4 exiting successfully. Buy a developer a beer!
