
    -----------------------------------------------------------------------
          Psi4: An Open-Source Ab Initio Electronic Structure Package
                               Psi4 1.1 release

                         Git: Rev {HEAD} add49b9 


    R. M. Parrish, L. A. Burns, D. G. A. Smith, A. C. Simmonett,
    A. E. DePrince III, E. G. Hohenstein, U. Bozkaya, A. Yu. Sokolov,
    R. Di Remigio, R. M. Richard, J. F. Gonthier, A. M. James,
    H. R. McAlexander, A. Kumar, M. Saitow, X. Wang, B. P. Pritchard,
    P. Verma, H. F. Schaefer III, K. Patkowski, R. A. King, E. F. Valeev,
    F. A. Evangelista, J. M. Turney, T. D. Crawford, and C. D. Sherrill,
    J. Chem. Theory Comput. in press (2017).
    (doi: 10.1021/acs.jctc.7b00174)

    -----------------------------------------------------------------------


    Psi4 started on: Wednesday, 06 September 2017 12:41PM

    Process ID:  30908
    PSIDATADIR: /home/raimis/opt/miniconda3/envs/htmd/share/psi4
    Memory:     500.0 MiB
    Threads:    1
    
  ==> Input File <==

--------------------------------------------------------------------------
set_num_threads( 8 )
memory 2.000000 gb

set { reference rks }
set { basis cc-pVDZ }

molecule MOL {
    0 1
    noreorient
    nocom
    symmetry c1
    O    1.141000   0.017000   0.083000
    C    2.558000   0.086000  -0.005000
    C    3.192000  -0.789000   1.067000
    O    4.609999  -0.719505   0.978588
    H    0.789000   0.590000  -0.620000
    H    2.874000   1.128000   0.115000
    H    2.871000  -0.243000  -1.001000
    H    2.875608  -1.829916   0.947300
    H    2.879393  -0.458690   2.064021
    H    4.960999  -1.293483   1.681606
}

set optking { frozen_dihedral = (" 1 2 3 4, 2 3 4 10 ") }

energy, wfn = energy('B3LYP-D3', return_wfn=True)

import os
os.chdir(os.environ['HTMD_PSI4_WORKDIR'])

oeprop(wfn, 'DIPOLE', 'QUADRUPOLE', 'MULLIKEN_CHARGES')

with open('psi4out.xyz', 'w') as f:
    f.write('10 ' )
    f.write('%.12f\n' % energy)
    f.write(MOL.save_string_xyz())
--------------------------------------------------------------------------
  Threads set to 8 by Python driver.

  Memory set to   1.863 GiB by Python driver.

*** tstart() called on computer03
*** at Wed Sep  6 12:41:07 2017

   => Loading Basis Set <=

    Name: CC-PVDZ
    Role: ORBITAL
    Keyword: BASIS
    atoms 1, 4 entry O          line   190 file /home/raimis/opt/miniconda3/envs/htmd/share/psi4/basis/cc-pvdz.gbs 
    atoms 2-3  entry C          line   130 file /home/raimis/opt/miniconda3/envs/htmd/share/psi4/basis/cc-pvdz.gbs 
    atoms 5-10 entry H          line    20 file /home/raimis/opt/miniconda3/envs/htmd/share/psi4/basis/cc-pvdz.gbs 


         ---------------------------------------------------------
                                   SCF
            by Justin Turney, Rob Parrish, and Andy Simmonett
                              RKS Reference
                        8 Threads,   1907 MiB Core
         ---------------------------------------------------------

  ==> Geometry <==

    Molecular point group: c1
    Full point group: C1

    Geometry (in Angstrom), charge = 0, multiplicity = 1:

       Center              X                  Y                   Z               Mass       
    ------------   -----------------  -----------------  -----------------  -----------------
           O          1.141000000000     0.017000000000     0.083000000000    15.994914619560
           C          2.558000000000     0.086000000000    -0.005000000000    12.000000000000
           C          3.192000000000    -0.789000000000     1.067000000000    12.000000000000
           O          4.609999000000    -0.719505000000     0.978588000000    15.994914619560
           H          0.789000000000     0.590000000000    -0.620000000000     1.007825032070
           H          2.874000000000     1.128000000000     0.115000000000     1.007825032070
           H          2.871000000000    -0.243000000000    -1.001000000000     1.007825032070
           H          2.875608000000    -1.829916000000     0.947300000000     1.007825032070
           H          2.879393000000    -0.458690000000     2.064021000000     1.007825032070
           H          4.960999000000    -1.293483000000     1.681606000000     1.007825032070

  Running in c1 symmetry.

  Rotational constants: A =      0.82452  B =      0.02537  C =      0.02485 [cm^-1]
  Rotational constants: A =  24718.47531  B =    760.66852  C =    744.89266 [MHz]
  Nuclear repulsion =  129.441068112400700

  Charge       = 0
  Multiplicity = 1
  Electrons    = 34
  Nalpha       = 17
  Nbeta        = 17

  ==> Algorithm <==

  SCF Algorithm Type is DF.
  DIIS enabled.
  MOM disabled.
  Fractional occupation disabled.
  Guess Type is SAD.
  Energy threshold   = 1.00e-06
  Density threshold  = 1.00e-06
  Integral threshold = 0.00e+00

  ==> Primary Basis <==

  Basis Set: CC-PVDZ
    Blend: CC-PVDZ
    Number of shells: 42
    Number of basis function: 86
    Number of Cartesian functions: 90
    Spherical Harmonics?: true
    Max angular momentum: 2

  ==> DFT Potential <==

   => B3LYP Composite Functional <= 

    B3LYP Hybrid-GGA Exchange-Correlation Functional (VWN1-RPA)

    P.J. Stephens et. al., J. Phys. Chem., 98, 11623-11627, 1994

    Points   =           5000
    Deriv    =              1
    GGA      =           TRUE
    Meta     =          FALSE

    X_LRC        =          FALSE
    X_Hybrid     =           TRUE
    X_Alpha      =   2.000000E-01
    X_Omega      =   0.000000E+00
    C_LRC        =          FALSE
    C_Hybrid     =          FALSE
    C_Alpha      =   0.000000E+00
    C_Omega      =   0.000000E+00

   => Exchange Functionals <=

    0.8000    B3_X
    0.2000      HF 

   => Correlation Functionals <=

    0.1900 VWN3RPA_C
    0.8100   LYP_C

   => Molecular Quadrature <=

    Radial Scheme    =       TREUTLER
    Pruning Scheme   =           FLAT
    Nuclear Scheme   =       TREUTLER

    BS radius alpha  =              1
    Pruning alpha    =              1
    Radial Points    =             75
    Spherical Points =            302
    Total Points     =         222564
    Total Blocks     =            212
    Max Points       =           4622
    Max Functions    =             86

   => -D3ZERO: Empirical Dispersion <=

    Grimme's -D3 (zero-damping) Dispersion Correction
    Grimme S.; Antony J.; Ehrlich S.; Krieg H. (2010), J. Chem. Phys., 132: 154104

        S6 =   1.000000E+00
        S8 =   1.703000E+00
       SR6 =   1.261000E+00
    ALPHA6 =   1.400000E+01

   => Loading Basis Set <=

    Name: (CC-PVDZ AUX)
    Role: JKFIT
    Keyword: DF_BASIS_SCF
    atoms 1, 4 entry O          line   220 file /home/raimis/opt/miniconda3/envs/htmd/share/psi4/basis/cc-pvdz-jkfit.gbs 
    atoms 2-3  entry C          line   120 file /home/raimis/opt/miniconda3/envs/htmd/share/psi4/basis/cc-pvdz-jkfit.gbs 
    atoms 5-10 entry H          line    50 file /home/raimis/opt/miniconda3/envs/htmd/share/psi4/basis/cc-pvdz-jkfit.gbs 

  ==> Pre-Iterations <==

   -------------------------------------------------------
    Irrep   Nso     Nmo     Nalpha   Nbeta   Ndocc  Nsocc
   -------------------------------------------------------
     A         86      86       0       0       0       0
   -------------------------------------------------------
    Total      86      86      17      17      17       0
   -------------------------------------------------------

  ==> Integral Setup <==

  ==> DFJK: Density-Fitted J/K Matrices <==

    J tasked:                  Yes
    K tasked:                  Yes
    wK tasked:                  No
    OpenMP threads:              8
    Integrals threads:           8
    Memory (MB):              1430
    Algorithm:                Core
    Integral Cache:           NONE
    Schwarz Cutoff:          1E-12
    Fitting Condition:       1E-12

   => Auxiliary Basis Set <=

  Basis Set: (CC-PVDZ AUX)
    Blend: CC-PVDZ-JKFIT
    Number of shells: 150
    Number of basis function: 418
    Number of Cartesian functions: 474
    Spherical Harmonics?: true
    Max angular momentum: 3

  Minimum eigenvalue in the overlap matrix is 4.9827297421E-03.
  Using Symmetric Orthogonalization.

  SCF Guess: Superposition of Atomic Densities via on-the-fly atomic UHF.

  ==> Iterations <==

                           Total Energy        Delta E     RMS |[F,P]|

   @DF-RKS iter   0:  -230.75283321600645   -2.30753e+02   6.09515e-02 
   @DF-RKS iter   1:  -230.16526346968683    5.87570e-01   6.48708e-03 
   @DF-RKS iter   2:  -230.13893248254891    2.63310e-02   6.46480e-03 DIIS
   @DF-RKS iter   3:  -230.25640309520531   -1.17471e-01   7.76148e-04 DIIS
   @DF-RKS iter   4:  -230.25707548930444   -6.72394e-04   4.02445e-04 DIIS
   @DF-RKS iter   5:  -230.25732947444368   -2.53985e-04   6.84826e-05 DIIS
   @DF-RKS iter   6:  -230.25733588094650   -6.40650e-06   3.81326e-06 DIIS
   @DF-RKS iter   7:  -230.25733590783122   -2.68847e-08   6.53571e-07 DIIS

  ==> Post-Iterations <==

    Orbital Energies (a.u.)
    -----------------------

    Doubly Occupied:                                                      

       1A    -19.131687     2A    -19.131663     3A    -10.226376  
       4A    -10.226179     5A     -1.018863     6A     -1.008604  
       7A     -0.732355     8A     -0.603655     9A     -0.525965  
      10A     -0.477157    11A     -0.476936    12A     -0.412258  
      13A     -0.395133    14A     -0.350277    15A     -0.319234  
      16A     -0.264140    17A     -0.263449  

    Virtual:                                                              

      18A      0.042622    19A      0.058773    20A      0.111555  
      21A      0.114325    22A      0.124435    23A      0.168953  
      24A      0.187404    25A      0.241908    26A      0.244169  
      27A      0.440902    28A      0.446857    29A      0.493247  
      30A      0.536466    31A      0.547719    32A      0.595155  
      33A      0.618123    34A      0.625898    35A      0.631380  
      36A      0.647064    37A      0.655907    38A      0.687277  
      39A      0.886849    40A      0.889236    41A      0.918437  
      42A      0.963237    43A      1.009747    44A      1.055660  
      45A      1.063700    46A      1.171027    47A      1.209165  
      48A      1.213040    49A      1.267637    50A      1.303511  
      51A      1.338893    52A      1.350278    53A      1.476730  
      54A      1.574601    55A      1.600960    56A      1.604237  
      57A      1.629000    58A      1.651356    59A      1.651906  
      60A      1.704013    61A      1.746928    62A      1.769669  
      63A      1.790997    64A      1.883880    65A      1.927927  
      66A      1.971050    67A      2.046731    68A      2.056524  
      69A      2.112173    70A      2.159397    71A      2.277893  
      72A      2.294548    73A      2.406936    74A      2.422799  
      75A      2.475138    76A      2.519835    77A      2.905581  
      78A      2.961843    79A      3.011344    80A      3.017805  
      81A      3.060986    82A      3.142705    83A      3.179344  
      84A      3.210401    85A      3.676739    86A      3.705788  

    Final Occupation by Irrep:
              A 
    DOCC [    17 ]

  Energy converged.

  @DF-RKS Final Energy:  -230.25733590783122

   => Energetics <=

    Nuclear Repulsion Energy =            129.4410681124006999
    One-Electron Energy =                -570.6361918237612372
    Two-Electron Energy =                 235.4809362284093766
    DFT Exchange-Correlation Energy =     -24.5387394048800225
    Empirical Dispersion Energy =          -0.0044090200000000
    PCM Polarization Energy =               0.0000000000000000
    EFP Energy =                            0.0000000000000000
    Total Energy =                       -230.2573359078312194



Properties will be evaluated at   0.000000,   0.000000,   0.000000 Bohr

Properties computed using the SCF density matrix

  Nuclear Dipole Moment: (a.u.)
     X:   184.7358      Y:   -22.5730      Z:    34.1126

  Electronic Dipole Moment: (a.u.)
     X:  -184.7375      Y:    22.5720      Z:   -34.1132

  Dipole Moment: (a.u.)
     X:    -0.0017      Y:    -0.0010      Z:    -0.0006     Total:     0.0020

  Dipole Moment: (Debye)
     X:    -0.0042      Y:    -0.0025      Z:    -0.0015     Total:     0.0051


*** tstop() called on computer03 at Wed Sep  6 12:41:26 2017
Module time:
	user time   =      28.81 seconds =       0.48 minutes
	system time =       0.64 seconds =       0.01 minutes
	total time  =         19 seconds =       0.32 minutes
Total time:
	user time   =      28.81 seconds =       0.48 minutes
	system time =       0.64 seconds =       0.01 minutes
	total time  =         19 seconds =       0.32 minutes


Properties will be evaluated at   0.000000,   0.000000,   0.000000 Bohr

Properties computed using the  density matrix

  Nuclear Dipole Moment: (a.u.)
     X:   184.7358      Y:   -22.5730      Z:    34.1126

  Electronic Dipole Moment: (a.u.)
     X:  -184.7375      Y:    22.5720      Z:   -34.1132

  Dipole Moment: (a.u.)
     X:    -0.0017      Y:    -0.0010      Z:    -0.0006     Total:     0.0020

  Dipole Moment: (Debye)
     X:    -0.0042      Y:    -0.0025      Z:    -0.0015     Total:     0.0051

  Quadrupole Moment: (Debye Ang)
    XX:   -26.5001     YY:   -22.3010     ZZ:   -20.9281
    XY:    -3.8309     XZ:     4.6930     YZ:    -3.3925

  Traceless Quadrupole Moment: (Debye Ang)
    XX:    -3.2571     YY:     0.9421     ZZ:     2.3150
    XY:    -3.8309     XZ:     4.6930     YZ:    -3.3925

  Mulliken Charges: (a.u.)
   Center  Symbol    Alpha    Beta     Spin     Total
       1     O     4.14043  4.14043  0.00000 -0.28087
       2     C     2.93622  2.93622  0.00000  0.12755
       3     C     2.93638  2.93638  0.00000  0.12724
       4     O     4.14064  4.14064  0.00000 -0.28128
       5     H     0.42730  0.42730  0.00000  0.14540
       6     H     0.49797  0.49797  0.00000  0.00406
       7     H     0.49802  0.49802  0.00000  0.00396
       8     H     0.49790  0.49790  0.00000  0.00420
       9     H     0.49788  0.49788  0.00000  0.00424
      10     H     0.42725  0.42725  0.00000  0.14551

   Total alpha = 17.00000, Total beta = 17.00000, Total charge = -0.00000


*** Psi4 exiting successfully. Buy a developer a beer!
