    -----------------------------------------------------------------------
          Psi4: An Open-Source Ab Initio Electronic Structure Package
                              Psi4 (no tag) Driver

                          Git: Rev {detached?}  

    J. M. Turney, A. C. Simmonett, R. M. Parrish, E. G. Hohenstein,
    F. A. Evangelista, J. T. Fermann, B. J. Mintz, L. A. Burns, J. J. Wilke,
    M. L. Abrams, N. J. Russ, M. L. Leininger, C. L. Janssen, E. T. Seidl,
    W. D. Allen, H. F. Schaefer, R. A. King, E. F. Valeev, C. D. Sherrill,
    and T. D. Crawford, WIREs Comput. Mol. Sci. 2, 556-565 (2012)
    (doi: 10.1002/wcms.93)

                         Additional Contributions by
    A. E. DePrince, M. Saitow, U. Bozkaya, A. Yu. Sokolov
    -----------------------------------------------------------------------


    Psi4 started on: Tue Jul  5 17:45:47 2016

    Process ID:  19723
    PSI4DATADIR: /export131/home/mjharvey/miniconda3/share
    Memory level set to 256.000 MB

  ==> Input File <==

--------------------------------------------------------------------------
set {
	reference rhf
	basis 6-31G*
}


set_num_threads( 1 )
memory 2 gb

molecule MOL {
0 1

O	 1.803820	 1.099745	 -1.416357
C	 0.788116	 1.716284	 -1.379704
C	 -0.483098	 1.274997	 -0.696221
O	 0.640172	 2.906476	 -1.947763
C	 -0.258002	 0.736192	 0.713270
H	 -1.159958	 2.125013	 -0.689403
H	 -0.951863	 0.529346	 -1.332604
C	 0.520852	 1.716311	 1.591799
H	 0.272984	 -0.208672	 0.654316
H	 -1.217975	 0.514667	 1.168998
C	 2.006217	 1.789608	 1.233777
H	 0.082452	 2.709498	 1.505882
H	 0.418333	 1.428576	 2.637064
C	 2.249393	 2.101213	 -0.242373
H	 2.483842	 0.845832	 1.487353
H	 2.486488	 2.548642	 1.847246
H	 1.810162	 1.340446	 -0.881531
H	 3.310977	 2.146774	 -0.464665
H	 1.812389	 3.056658	 -0.518893
C	 1.792514	 3.724689	 -2.034891
H	 2.180449	 3.940881	 -1.049855
H	 1.472688	 4.634305	 -2.518819
H	 2.560106	 3.239076	 -2.620117

	symmetry c1
}
set optking {
	frozen_dihedral = ("
		15 11 8 12,
		9 5 8 12,
		1 2 3 6,
		9 5 3 6
	")
}

ee = energy('scf')
oeprop('DIPOLE', 'QUADRUPOLE', 'MULLIKEN_CHARGES')
f=open( 'psi4out.xyz', 'w' )
f.write( "23  " )
f.write( str(ee) + "\n" )
f.write( MOL.save_string_xyz() )
f.close()
--------------------------------------------------------------------------

  Memory set to   2.000 GiB by Python script.

*** tstart() called on cx1-1-1-4.cx1.hpc.ic.ac.uk
*** at Tue Jul  5 17:45:48 2016


         ---------------------------------------------------------
                                   SCF
            by Justin Turney, Rob Parrish, and Andy Simmonett
                              RHF Reference
                        1 Threads,   2000 MiB Core
         ---------------------------------------------------------

  ==> Geometry <==

    Molecular point group: c1
    Full point group: C1

    Geometry (in Angstrom), charge = 0, multiplicity = 1:

       Center              X                  Y                   Z               Mass       
    ------------   -----------------  -----------------  -----------------  -----------------
           O          0.772560761135    -0.820844427636    -0.921642721245    15.994914619560
           C         -0.243143238865    -0.204305427636    -0.884989721245    12.000000000000
           C         -1.514357238865    -0.645592427636    -0.201506721245    12.000000000000
           O         -0.391087238865     0.985886572364    -1.453048721245    15.994914619560
           C         -1.289261238865    -1.184397427636     1.207984278755    12.000000000000
           H         -2.191217238865     0.204423572364    -0.194688721245     1.007825032070
           H         -1.983122238865    -1.391243427636    -0.837889721245     1.007825032070
           C         -0.510407238865    -0.204278427636     2.086513278755    12.000000000000
           H         -0.758275238865    -2.129261427636     1.149030278755     1.007825032070
           H         -2.249234238865    -1.405922427636     1.663712278755     1.007825032070
           C          0.974957761135    -0.130981427636     1.728491278755    12.000000000000
           H         -0.948807238865     0.788908572364     2.000596278755     1.007825032070
           H         -0.612926238865    -0.492013427636     3.131778278755     1.007825032070
           C          1.218133761135     0.180623572364     0.252341278755    12.000000000000
           H          1.452582761135    -1.074757427636     1.982067278755     1.007825032070
           H          1.455228761135     0.628052572364     2.341960278755     1.007825032070
           H          0.778902761135    -0.580143427636    -0.386816721245     1.007825032070
           H          2.279717761135     0.226184572364     0.030049278755     1.007825032070
           H          0.781129761135     1.136068572364    -0.024178721245     1.007825032070
           C          0.761254761135     1.804099572364    -1.540176721245    12.000000000000
           H          1.149189761135     2.020291572364    -0.555140721245     1.007825032070
           H          0.441428761135     2.713715572364    -2.024104721245     1.007825032070
           H          1.528846761135     1.318486572364    -2.125402721245     1.007825032070

  Running in c1 symmetry.

  Rotational constants: A =      0.08723  B =      0.04947  C =      0.04070 [cm^-1]
  Rotational constants: A =   2614.97933  B =   1483.05070  C =   1220.16483 [MHz]
  Nuclear repulsion =  540.833408830278017

  Charge       = 0
  Multiplicity = 1
  Electrons    = 72
  Nalpha       = 36
  Nbeta        = 36

  ==> Algorithm <==

  SCF Algorithm Type is DF.
  DIIS enabled.
  MOM disabled.
  Fractional occupation disabled.
  Guess Type is CORE.
  Energy threshold   = 1.00e-06
  Density threshold  = 1.00e-06
  Integral threshold = 0.00e+00

  ==> Primary Basis <==

  Basis Set: 6-31G*
    Number of shells: 82
    Number of basis function: 163
    Number of Cartesian functions: 163
    Spherical Harmonics?: false
    Max angular momentum: 2

  ==> Pre-Iterations <==

   -------------------------------------------------------
    Irrep   Nso     Nmo     Nalpha   Nbeta   Ndocc  Nsocc
   -------------------------------------------------------
     A        163     163       0       0       0       0
   -------------------------------------------------------
    Total     163     163      36      36      36       0
   -------------------------------------------------------

 OEINTS: Overlap, kinetic, potential, dipole, and quadrupole integrals
         stored in file 35.

  ==> Integral Setup <==

  ==> DFJK: Density-Fitted J/K Matrices <==

    J tasked:                  Yes
    K tasked:                  Yes
    wK tasked:                  No
    OpenMP threads:              1
    Integrals threads:           1
    Memory (MB):              1430
    Algorithm:                Core
    Integral Cache:           NONE
    Schwarz Cutoff:          1E-12
    Fitting Condition:       1E-12

   => Auxiliary Basis Set <=

  Basis Set: 
    Number of shells: 342
    Number of basis function: 1079
    Number of Cartesian functions: 1079
    Spherical Harmonics?: false
    Max angular momentum: 3

  Minimum eigenvalue in the overlap matrix is 1.7463480077E-03.
  Using Symmetric Orthogonalization.
  SCF Guess: Core (One-Electron) Hamiltonian.

  ==> Iterations <==

                           Total Energy        Delta E     RMS |[F,P]|

   @DF-RHF iter   1:  -266.97535785001412   -2.66975e+02   8.07365e-02 
   @DF-RHF iter   2:  -172.77572694431490    9.41996e+01   6.72884e-02 DIIS
   @DF-RHF iter   3:  -306.26189801960447   -1.33486e+02   6.58665e-02 DIIS
   @DF-RHF iter   4:  -388.89144306077401   -8.26295e+01   3.99971e-02 DIIS
   @DF-RHF iter   5:  -401.41070273773278   -1.25193e+01   3.00440e-02 DIIS
   @DF-RHF iter   6:  -420.77567790251135   -1.93650e+01   8.65960e-03 DIIS
   @DF-RHF iter   7:  -421.49419692623678   -7.18519e-01   5.57633e-03 DIIS
   @DF-RHF iter   8:  -421.84738978083692   -3.53193e-01   1.41052e-03 DIIS
   @DF-RHF iter   9:  -421.87679824247027   -2.94085e-02   4.41849e-04 DIIS
   @DF-RHF iter  10:  -421.88058067279849   -3.78243e-03   1.35562e-04 DIIS
   @DF-RHF iter  11:  -421.88124169745424   -6.61025e-04   5.92890e-05 DIIS
   @DF-RHF iter  12:  -421.88136414768280   -1.22450e-04   4.36433e-05 DIIS
   @DF-RHF iter  13:  -421.88143653453744   -7.23869e-05   3.36464e-05 DIIS
   @DF-RHF iter  14:  -421.88150202172494   -6.54872e-05   2.23353e-05 DIIS
   @DF-RHF iter  15:  -421.88155324016930   -5.12184e-05   8.63147e-06 DIIS
   @DF-RHF iter  16:  -421.88156128270998   -8.04254e-06   2.08414e-06 DIIS
   @DF-RHF iter  17:  -421.88156165441490   -3.71705e-07   5.53834e-07 DIIS

  ==> Post-Iterations <==

    Orbital Energies (a.u.)
    -----------------------

    Doubly Occupied:                                                      

       1A    -20.581288     2A    -20.550941     3A    -11.337025  
       4A    -11.267759     5A    -11.223248     6A    -11.222910  
       7A    -11.216194     8A    -11.213592     9A    -11.211645  
      10A     -1.768122    11A     -1.423015    12A     -1.089839  
      13A     -1.065367    14A     -0.971161    15A     -0.957113  
      16A     -0.922901    17A     -0.850714    18A     -0.811875  
      19A     -0.773387    20A     -0.715667    21A     -0.697145  
      22A     -0.673475    23A     -0.626130    24A     -0.621392  
      25A     -0.597690    26A     -0.580894    27A     -0.553070  
      28A     -0.540054    29A     -0.528269    30A     -0.487053  
      31A     -0.484925    32A     -0.478183    33A     -0.456175  
      34A     -0.454377    35A     -0.429472    36A     -0.175598  

    Virtual:                                                              

      37A      0.133827    38A      0.226240    39A      0.263089  
      40A      0.276704    41A      0.282157    42A      0.293247  
      43A      0.309987    44A      0.316138    45A      0.319398  
      46A      0.325301    47A      0.335116    48A      0.345696  
      49A      0.361615    50A      0.374594    51A      0.395065  
      52A      0.422537    53A      0.435477    54A      0.463608  
      55A      0.470827    56A      0.477104    57A      0.521750  
      58A      0.563518    59A      0.638753    60A      0.721852  
      61A      0.722702    62A      0.737992    63A      0.756960  
      64A      0.763694    65A      0.775609    66A      0.805260  
      67A      0.825013    68A      0.850474    69A      0.880795  
      70A      0.889606    71A      0.915092    72A      0.929500  
      73A      0.944012    74A      0.966827    75A      1.003043  
      76A      1.025840    77A      1.057589    78A      1.082358  
      79A      1.117406    80A      1.130333    81A      1.145238  
      82A      1.148418    83A      1.153902    84A      1.160641  
      85A      1.163708    86A      1.180941    87A      1.208496  
      88A      1.214096    89A      1.229960    90A      1.250262  
      91A      1.256889    92A      1.264097    93A      1.288190  
      94A      1.300960    95A      1.334270    96A      1.364284  
      97A      1.402901    98A      1.448620    99A      1.479024  
     100A      1.517535   101A      1.552094   102A      1.610612  
     103A      1.639010   104A      1.680092   105A      1.728747  
     106A      1.768511   107A      1.814346   108A      1.839624  
     109A      1.878096   110A      1.908880   111A      1.952071  
     112A      1.998868   113A      2.020066   114A      2.044280  
     115A      2.089388   116A      2.097010   117A      2.141883  
     118A      2.180526   119A      2.211728   120A      2.216438  
     121A      2.255630   122A      2.275679   123A      2.315309  
     124A      2.364234   125A      2.400208   126A      2.412435  
     127A      2.422123   128A      2.427469   129A      2.465412  
     130A      2.519474   131A      2.559929   132A      2.595611  
     133A      2.611852   134A      2.639354   135A      2.679272  
     136A      2.700397   137A      2.707245   138A      2.739740  
     139A      2.751114   140A      2.787140   141A      2.815039  
     142A      2.843881   143A      2.919853   144A      2.956604  
     145A      3.002241   146A      3.040123   147A      3.063233  
     148A      3.118112   149A      3.161162   150A      3.213388  
     151A      3.342425   152A      3.443101   153A      3.537353  
     154A      4.491572   155A      4.584251   156A      4.588676  
     157A      4.693893   158A      4.791711   159A      4.819877  
     160A      4.963032   161A      5.028010   162A      5.069444  
     163A      5.303146  

    Final Occupation by Irrep:
              A 
    DOCC [    36 ]

  Energy converged.

  @DF-RHF Final Energy:  -421.88156165441490

   => Energetics <=

    Nuclear Repulsion Energy =            540.8334088302780174
    One-Electron Energy =               -1646.3145811934537051
    Two-Electron Energy =                 683.5996107087617020
    DFT Exchange-Correlation Energy =       0.0000000000000000
    Empirical Dispersion Energy =           0.0000000000000000
    PCM Polarization Energy =               0.0000000000000000
    EFP Energy =                            0.0000000000000000
    Total Energy =                       -421.8815616544138720

    Alert: EFP and PCM quantities not currently incorporated into SCF psivars.

Properties will be evaluated at   0.000000,   0.000000,   0.000000 Bohr
  ==> Properties <==


Properties computed using the SCF density matrix

  Nuclear Dipole Moment: (a.u.)
     X:     1.0550      Y:     1.8408      Z:     5.7549

  Electronic Dipole Moment: (a.u.)
     X:    -0.8693      Y:    -1.5544      Z:    -5.6339

  Dipole Moment: (a.u.)
     X:     0.1857      Y:     0.2865      Z:     0.1211     Total:     0.3622

  Dipole Moment: (Debye)
     X:     0.4721      Y:     0.7281      Z:     0.3077     Total:     0.9207


  Saving occupied orbitals to File 180.

*** tstop() called on cx1-1-1-4.cx1.hpc.ic.ac.uk at Tue Jul  5 17:46:17 2016
Module time:
	user time   =      28.21 seconds =       0.47 minutes
	system time =       0.27 seconds =       0.00 minutes
	total time  =         29 seconds =       0.48 minutes
Total time:
	user time   =      28.21 seconds =       0.47 minutes
	system time =       0.27 seconds =       0.00 minutes
	total time  =         29 seconds =       0.48 minutes


Properties will be evaluated at   0.000000,   0.000000,   0.000000 Bohr

Properties computed using the  density matrix

  Nuclear Dipole Moment: (a.u.)
     X:     1.0550      Y:     1.8408      Z:     5.7549

  Electronic Dipole Moment: (a.u.)
     X:    -0.8693      Y:    -1.5544      Z:    -5.6339

  Dipole Moment: (a.u.)
     X:     0.1857      Y:     0.2865      Z:     0.1211     Total:     0.3622

  Dipole Moment: (Debye)
     X:     0.4721      Y:     0.7281      Z:     0.3077     Total:     0.9207

  Quadrupole Moment: (Debye Ang)
    XX:   -56.4233     YY:   -55.8306     ZZ:   -58.5171
    XY:     3.0740     XZ:    -2.0143     YZ:    -1.2453

  Traceless Quadrupole Moment: (Debye Ang)
    XX:     0.5004     YY:     1.0931     ZZ:    -1.5935
    XY:     3.0740     XZ:    -2.0143     YZ:    -1.2453

  Mulliken Charges: (a.u.)
   Center  Symbol    Alpha    Beta     Spin     Total
       1     O     4.08348  4.08348  0.00000 -0.16696
       2     C     2.79557  2.79557  0.00000  0.40887
       3     C     3.16665  3.16665  0.00000 -0.33330
       4     O     4.30598  4.30598  0.00000 -0.61196
       5     C     3.16426  3.16426  0.00000 -0.32852
       6     H     0.40085  0.40085  0.00000  0.19831
       7     H     0.42068  0.42068  0.00000  0.15865
       8     C     3.15167  3.15167  0.00000 -0.30334
       9     H     0.41864  0.41864  0.00000  0.16273
      10     H     0.41575  0.41575  0.00000  0.16851
      11     C     3.12904  3.12904  0.00000 -0.25809
      12     H     0.42321  0.42321  0.00000  0.15358
      13     H     0.42002  0.42002  0.00000  0.15997
      14     C     3.31097  3.31097  0.00000 -0.62194
      15     H     0.42504  0.42504  0.00000  0.14991
      16     H     0.42365  0.42365  0.00000  0.15269
      17     H     0.41393  0.41393  0.00000  0.17213
      18     H     0.40763  0.40763  0.00000  0.18474
      19     H     0.40045  0.40045  0.00000  0.19911
      20     C     3.12196  3.12196  0.00000 -0.24392
      21     H     0.38771  0.38771  0.00000  0.22458
      22     H     0.40385  0.40385  0.00000  0.19230
      23     H     0.40902  0.40902  0.00000  0.18196

   Total alpha = 36.00000, Total beta = 36.00000, Total charge = -0.00000


*** PSI4 exiting successfully. Buy a developer a beer!
