    -----------------------------------------------------------------------
          Psi4: An Open-Source Ab Initio Electronic Structure Package
                              Psi4 (no tag) Driver

                          Git: Rev {detached?}  

    J. M. Turney, A. C. Simmonett, R. M. Parrish, E. G. Hohenstein,
    F. A. Evangelista, J. T. Fermann, B. J. Mintz, L. A. Burns, J. J. Wilke,
    M. L. Abrams, N. J. Russ, M. L. Leininger, C. L. Janssen, E. T. Seidl,
    W. D. Allen, H. F. Schaefer, R. A. King, E. F. Valeev, C. D. Sherrill,
    and T. D. Crawford, WIREs Comput. Mol. Sci. 2, 556-565 (2012)
    (doi: 10.1002/wcms.93)

                         Additional Contributions by
    A. E. DePrince, M. Saitow, U. Bozkaya, A. Yu. Sokolov
    -----------------------------------------------------------------------


    Psi4 started on: Tue Jul  5 17:07:25 2016

    Process ID:  14438
    PSI4DATADIR: /export131/home/mjharvey/miniconda3/share
    Memory level set to 256.000 MB

  ==> Input File <==

--------------------------------------------------------------------------
set {
	reference rhf
	basis 6-31G*
}


set_num_threads( 1 )
memory 2 gb

molecule MOL {
0 1

O	 -0.203439	 0.656259	 -1.875459
C	 0.140502	 1.681556	 -1.381988
C	 0.841945	 1.824890	 -0.053332
O	 -0.054281	 2.863688	 -1.952602
C	 2.002911	 0.851836	 0.127412
H	 1.175976	 2.855706	 0.027884
H	 0.094257	 1.694530	 0.724307
C	 3.003988	 0.920312	 -1.026936
H	 1.613753	 -0.157571	 0.217731
H	 2.506967	 1.065536	 1.064836
C	 2.474768	 0.271718	 -2.305316
H	 3.256350	 1.959523	 -1.228010
H	 3.931510	 0.433073	 -0.733044
H	 1.565452	 0.759478	 -2.644267
H	 3.203187	 0.334067	 -3.107684
H	 2.246028	 -0.778003	 -2.145931
C	 1.065166	 3.726192	 -2.042424
H	 1.444631	 3.960080	 -1.058153
H	 0.709774	 4.621320	 -2.528624
H	 1.850932	 3.269393	 -2.626729

	symmetry c1
}
set optking {
	frozen_dihedral = ("
		9 5 8 12,
		1 2 3 6,
		9 5 3 6
	")
}

ee = energy('scf')
oeprop('DIPOLE', 'QUADRUPOLE', 'MULLIKEN_CHARGES')
f=open( 'psi4out.xyz', 'w' )
f.write( "20  " )
f.write( str(ee) + "\n" )
f.write( MOL.save_string_xyz() )
f.close()
--------------------------------------------------------------------------

  Memory set to   2.000 GiB by Python script.

*** tstart() called on cx1-3-16-2.cx1.hpc.ic.ac.uk
*** at Tue Jul  5 17:07:25 2016


         ---------------------------------------------------------
                                   SCF
            by Justin Turney, Rob Parrish, and Andy Simmonett
                              RHF Reference
                        1 Threads,   2000 MiB Core
         ---------------------------------------------------------

  ==> Geometry <==

    Molecular point group: c1
    Full point group: C1

    Geometry (in Angstrom), charge = 0, multiplicity = 1:

       Center              X                  Y                   Z               Mass       
    ------------   -----------------  -----------------  -----------------  -----------------
           O         -1.357886996616    -0.961479050273    -0.535322473676    15.994914619560
           C         -1.013945996616     0.063817949727    -0.041851473676    12.000000000000
           C         -0.312502996616     0.207151949727     1.286804526324    12.000000000000
           O         -1.208728996616     1.245949949727    -0.612465473676    15.994914619560
           C          0.848463003384    -0.765902050273     1.467548526324    12.000000000000
           H          0.021528003384     1.237967949727     1.368020526324     1.007825032070
           H         -1.060190996616     0.076791949727     2.064443526324     1.007825032070
           C          1.849540003384    -0.697426050273     0.313200526324    12.000000000000
           H          0.459305003384    -1.775309050273     1.557867526324     1.007825032070
           H          1.352519003384    -0.552202050273     2.404972526324     1.007825032070
           C          1.320320003384    -1.346020050273    -0.965179473676    12.000000000000
           H          2.101902003384     0.341784949727     0.112126526324     1.007825032070
           H          2.777062003384    -1.184665050273     0.607092526324     1.007825032070
           H          0.411004003384    -0.858260050273    -1.304130473676     1.007825032070
           H          2.048739003384    -1.283671050273    -1.767547473676     1.007825032070
           H          1.091580003384    -2.395741050273    -0.805794473676     1.007825032070
           C         -0.089281996616     2.108453949727    -0.702287473676    12.000000000000
           H          0.290183003384     2.342341949727     0.281983526324     1.007825032070
           H         -0.444673996616     3.003581949727    -1.188487473676     1.007825032070
           H          0.696484003384     1.651654949727    -1.286592473676     1.007825032070

  Running in c1 symmetry.

  Rotational constants: A =      0.08949  B =      0.05300  C =      0.05139 [cm^-1]
  Rotational constants: A =   2682.76736  B =   1588.76531  C =   1540.62494 [MHz]
  Nuclear repulsion =  416.101296901286560

  Charge       = 0
  Multiplicity = 1
  Electrons    = 64
  Nalpha       = 32
  Nbeta        = 32

  ==> Algorithm <==

  SCF Algorithm Type is DF.
  DIIS enabled.
  MOM disabled.
  Fractional occupation disabled.
  Guess Type is CORE.
  Energy threshold   = 1.00e-06
  Density threshold  = 1.00e-06
  Integral threshold = 0.00e+00

  ==> Primary Basis <==

  Basis Set: 6-31G*
    Number of shells: 72
    Number of basis function: 144
    Number of Cartesian functions: 144
    Spherical Harmonics?: false
    Max angular momentum: 2

  ==> Pre-Iterations <==

   -------------------------------------------------------
    Irrep   Nso     Nmo     Nalpha   Nbeta   Ndocc  Nsocc
   -------------------------------------------------------
     A        144     144       0       0       0       0
   -------------------------------------------------------
    Total     144     144      32      32      32       0
   -------------------------------------------------------

 OEINTS: Overlap, kinetic, potential, dipole, and quadrupole integrals
         stored in file 35.

  ==> Integral Setup <==

  ==> DFJK: Density-Fitted J/K Matrices <==

    J tasked:                  Yes
    K tasked:                  Yes
    wK tasked:                  No
    OpenMP threads:              1
    Integrals threads:           1
    Memory (MB):              1430
    Algorithm:                Core
    Integral Cache:           NONE
    Schwarz Cutoff:          1E-12
    Fitting Condition:       1E-12

   => Auxiliary Basis Set <=

  Basis Set: 
    Number of shells: 300
    Number of basis function: 948
    Number of Cartesian functions: 948
    Spherical Harmonics?: false
    Max angular momentum: 3

  Minimum eigenvalue in the overlap matrix is 2.8203197477E-03.
  Using Symmetric Orthogonalization.
  SCF Guess: Core (One-Electron) Hamiltonian.

  ==> Iterations <==

                           Total Energy        Delta E     RMS |[F,P]|

   @DF-RHF iter   1:  -265.89179464980452   -2.65892e+02   7.50050e-02 
   @DF-RHF iter   2:  -232.22629140115032    3.36655e+01   6.24466e-02 DIIS
   @DF-RHF iter   3:  -325.06797431424593   -9.28417e+01   4.70187e-02 DIIS
   @DF-RHF iter   4:  -346.98663288944613   -2.19187e+01   4.30161e-02 DIIS
   @DF-RHF iter   5:  -371.48478108237850   -2.44981e+01   2.82999e-02 DIIS
   @DF-RHF iter   6:  -383.40090173468752   -1.19161e+01   6.31697e-03 DIIS
   @DF-RHF iter   7:  -383.80811602179756   -4.07214e-01   2.39423e-03 DIIS
   @DF-RHF iter   8:  -383.86699435818775   -5.88783e-02   1.19867e-03 DIIS
   @DF-RHF iter   9:  -383.88081417455442   -1.38198e-02   5.42739e-04 DIIS
   @DF-RHF iter  10:  -383.88435754088869   -3.54337e-03   2.66217e-04 DIIS
   @DF-RHF iter  11:  -383.88514889939938   -7.91359e-04   8.82050e-05 DIIS
   @DF-RHF iter  12:  -383.88524516086773   -9.62615e-05   2.76191e-05 DIIS
   @DF-RHF iter  13:  -383.88525522910970   -1.00682e-05   6.29279e-06 DIIS
   @DF-RHF iter  14:  -383.88525630113861   -1.07203e-06   2.12407e-06 DIIS
   @DF-RHF iter  15:  -383.88525642602508   -1.24886e-07   8.29537e-07 DIIS

  ==> Post-Iterations <==

    Orbital Energies (a.u.)
    -----------------------

    Doubly Occupied:                                                      

       1A    -20.601473     2A    -20.548712     3A    -11.377582  
       4A    -11.297742     5A    -11.237444     6A    -11.228970  
       7A    -11.222752     8A    -11.196402     9A     -1.470713  
      10A     -1.374306    11A     -1.095639    12A     -1.012891  
      13A     -0.985606    14A     -0.906745    15A     -0.815175  
      16A     -0.764850    17A     -0.708778    18A     -0.690726  
      19A     -0.685472    20A     -0.637515    21A     -0.623923  
      22A     -0.593955    23A     -0.580714    24A     -0.562651  
      25A     -0.546464    26A     -0.521181    27A     -0.512505  
      28A     -0.480157    29A     -0.472976    30A     -0.467090  
      31A     -0.436611    32A     -0.429103  

    Virtual:                                                              

      33A      0.167365    34A      0.221673    35A      0.251847  
      36A      0.259395    37A      0.274826    38A      0.295551  
      39A      0.300922    40A      0.314659    41A      0.326904  
      42A      0.329661    43A      0.343512    44A      0.361899  
      45A      0.378079    46A      0.391923    47A      0.422374  
      48A      0.425063    49A      0.451942    50A      0.464033  
      51A      0.549780    52A      0.617145    53A      0.677177  
      54A      0.718924    55A      0.730237    56A      0.740116  
      57A      0.763920    58A      0.779630    59A      0.819499  
      60A      0.842873    61A      0.861086    62A      0.888111  
      63A      0.912773    64A      0.923218    65A      0.951500  
      66A      0.987932    67A      0.992218    68A      0.997316  
      69A      1.056977    70A      1.092656    71A      1.122293  
      72A      1.124663    73A      1.133937    74A      1.157597  
      75A      1.164886    76A      1.172013    77A      1.181078  
      78A      1.212653    79A      1.215529    80A      1.222663  
      81A      1.233478    82A      1.251265    83A      1.259463  
      84A      1.308627    85A      1.334050    86A      1.358161  
      87A      1.389174    88A      1.417623    89A      1.451304  
      90A      1.517545    91A      1.538175    92A      1.634109  
      93A      1.656238    94A      1.713407    95A      1.736133  
      96A      1.770754    97A      1.817047    98A      1.882024  
      99A      1.919464   100A      1.948594   101A      2.001932  
     102A      2.044118   103A      2.090111   104A      2.125133  
     105A      2.142479   106A      2.169123   107A      2.184682  
     108A      2.225266   109A      2.244568   110A      2.261620  
     111A      2.328251   112A      2.344186   113A      2.397159  
     114A      2.416552   115A      2.435695   116A      2.460805  
     117A      2.472256   118A      2.578569   119A      2.601984  
     120A      2.625233   121A      2.668353   122A      2.690724  
     123A      2.710235   124A      2.743655   125A      2.768639  
     126A      2.803573   127A      2.834165   128A      2.905423  
     129A      2.977827   130A      3.038493   131A      3.078601  
     132A      3.138637   133A      3.221133   134A      3.298091  
     135A      3.407156   136A      3.532661   137A      4.438095  
     138A      4.565200   139A      4.625746   140A      4.684477  
     141A      4.766471   142A      4.831673   143A      4.951493  
     144A      5.043836  

    Final Occupation by Irrep:
              A 
    DOCC [    32 ]

  Energy converged.

  @DF-RHF Final Energy:  -383.88525642602508

   => Energetics <=

    Nuclear Repulsion Energy =            416.1012969012865597
    One-Electron Energy =               -1347.7994619185437841
    Two-Electron Energy =                 547.8129085912324854
    DFT Exchange-Correlation Energy =       0.0000000000000000
    Empirical Dispersion Energy =           0.0000000000000000
    PCM Polarization Energy =               0.0000000000000000
    EFP Energy =                            0.0000000000000000
    Total Energy =                       -383.8852564260247391

    Alert: EFP and PCM quantities not currently incorporated into SCF psivars.

Properties will be evaluated at   0.000000,   0.000000,   0.000000 Bohr
  ==> Properties <==


Properties computed using the SCF density matrix

  Nuclear Dipole Moment: (a.u.)
     X:     9.1237      Y:     0.5679      Z:     1.9106

  Electronic Dipole Moment: (a.u.)
     X:    -8.1490      Y:     0.5052      Z:    -1.1876

  Dipole Moment: (a.u.)
     X:     0.9747      Y:     1.0731      Z:     0.7230     Total:     1.6200

  Dipole Moment: (Debye)
     X:     2.4774      Y:     2.7276      Z:     1.8378     Total:     4.1176


  Saving occupied orbitals to File 180.

*** tstop() called on cx1-3-16-2.cx1.hpc.ic.ac.uk at Tue Jul  5 17:07:42 2016
Module time:
	user time   =      16.81 seconds =       0.28 minutes
	system time =       0.19 seconds =       0.00 minutes
	total time  =         17 seconds =       0.28 minutes
Total time:
	user time   =      16.81 seconds =       0.28 minutes
	system time =       0.19 seconds =       0.00 minutes
	total time  =         17 seconds =       0.28 minutes


Properties will be evaluated at   0.000000,   0.000000,   0.000000 Bohr

Properties computed using the  density matrix

  Nuclear Dipole Moment: (a.u.)
     X:     9.1237      Y:     0.5679      Z:     1.9106

  Electronic Dipole Moment: (a.u.)
     X:    -8.1490      Y:     0.5052      Z:    -1.1876

  Dipole Moment: (a.u.)
     X:     0.9747      Y:     1.0731      Z:     0.7230     Total:     1.6200

  Dipole Moment: (Debye)
     X:     2.4774      Y:     2.7276      Z:     1.8378     Total:     4.1176

  Quadrupole Moment: (Debye Ang)
    XX:   -54.7101     YY:   -48.2318     ZZ:   -49.8638
    XY:    -0.9040     XZ:    -3.1722     YZ:    -2.2403

  Traceless Quadrupole Moment: (Debye Ang)
    XX:    -3.7748     YY:     2.7034     ZZ:     1.0714
    XY:    -0.9040     XZ:    -3.1722     YZ:    -2.2403

  Mulliken Charges: (a.u.)
   Center  Symbol    Alpha    Beta     Spin     Total
       1     O     4.26722  4.26722  0.00000 -0.53445
       2     C     2.60504  2.60504  0.00000  0.78992
       3     C     3.22268  3.22268  0.00000 -0.44536
       4     O     4.30396  4.30396  0.00000 -0.60793
       5     C     3.15198  3.15198  0.00000 -0.30396
       6     H     0.41171  0.41171  0.00000  0.17658
       7     H     0.39341  0.39341  0.00000  0.21318
       8     C     3.16698  3.16698  0.00000 -0.33396
       9     H     0.40688  0.40688  0.00000  0.18624
      10     H     0.41556  0.41556  0.00000  0.16887
      11     C     3.24736  3.24736  0.00000 -0.49472
      12     H     0.42959  0.42959  0.00000  0.14082
      13     H     0.41568  0.41568  0.00000  0.16864
      14     H     0.39905  0.39905  0.00000  0.20189
      15     H     0.42571  0.42571  0.00000  0.14858
      16     H     0.41540  0.41540  0.00000  0.16920
      17     C     3.10108  3.10108  0.00000 -0.20215
      18     H     0.41633  0.41633  0.00000  0.16734
      19     H     0.39744  0.39744  0.00000  0.20512
      20     H     0.40693  0.40693  0.00000  0.18614

   Total alpha = 32.00000, Total beta = 32.00000, Total charge = -0.00000


*** PSI4 exiting successfully. Buy a developer a beer!
