    -----------------------------------------------------------------------
          Psi4: An Open-Source Ab Initio Electronic Structure Package
                              Psi4 (no tag) Driver

                          Git: Rev {detached?}  

    J. M. Turney, A. C. Simmonett, R. M. Parrish, E. G. Hohenstein,
    F. A. Evangelista, J. T. Fermann, B. J. Mintz, L. A. Burns, J. J. Wilke,
    M. L. Abrams, N. J. Russ, M. L. Leininger, C. L. Janssen, E. T. Seidl,
    W. D. Allen, H. F. Schaefer, R. A. King, E. F. Valeev, C. D. Sherrill,
    and T. D. Crawford, WIREs Comput. Mol. Sci. 2, 556-565 (2012)
    (doi: 10.1002/wcms.93)

                         Additional Contributions by
    A. E. DePrince, M. Saitow, U. Bozkaya, A. Yu. Sokolov
    -----------------------------------------------------------------------


    Psi4 started on: Tue Jul  5 16:48:10 2016

    Process ID:  13909
    PSI4DATADIR: /export131/home/mjharvey/miniconda3/share
    Memory level set to 256.000 MB

  ==> Input File <==

--------------------------------------------------------------------------
set {
	reference rhf
	basis 6-31G*
}


set_num_threads( 1 )
memory 2 gb

molecule MOL {
0 1

H	 -0.000158	 1.970498	 0.756846
O	 -0.000074	 1.880206	 -0.189275
C	 -0.000015	 0.544847	 -0.545111
C	 0.077379	 0.412096	 -2.062468
C	 -1.201597	 -0.158249	 0.077670
H	 0.890424	 0.093666	 -0.133216
F	 1.183632	 0.974755	 -2.499692
F	 0.077142	 -0.844515	 -2.453986
F	 -0.943216	 1.024786	 -2.640909
F	 -1.140162	 -0.061225	 1.388528
F	 -1.248939	 -1.436011	 -0.234518
F	 -2.332513	 0.405055	 -0.316405

	symmetry c1
}
set optking {
	frozen_dihedral = ("
		7 4 3 6
	")
}

ee = energy('scf')
oeprop('DIPOLE', 'QUADRUPOLE', 'MULLIKEN_CHARGES')
f=open( 'psi4out.xyz', 'w' )
f.write( "12  " )
f.write( str(ee) + "\n" )
f.write( MOL.save_string_xyz() )
f.close()
--------------------------------------------------------------------------

  Memory set to   2.000 GiB by Python script.

*** tstart() called on cx1-3-4-4.cx1.hpc.ic.ac.uk
*** at Tue Jul  5 16:48:10 2016


         ---------------------------------------------------------
                                   SCF
            by Justin Turney, Rob Parrish, and Andy Simmonett
                              RHF Reference
                        1 Threads,   2000 MiB Core
         ---------------------------------------------------------

  ==> Geometry <==

    Molecular point group: c1
    Full point group: C1

    Geometry (in Angstrom), charge = 0, multiplicity = 1:

       Center              X                  Y                   Z               Mass       
    ------------   -----------------  -----------------  -----------------  -----------------
           H          0.572843280498     1.714949894221     1.715945764122     1.007825032070
           O          0.572927280498     1.624657894221     0.769824764122    15.994914619560
           C          0.572986280498     0.289298894221     0.413988764122    12.000000000000
           C          0.650380280498     0.156547894221    -1.103368235878    12.000000000000
           C         -0.628595719502    -0.413797105779     1.036769764122    12.000000000000
           H          1.463425280498    -0.161882105779     0.825883764122     1.007825032070
           F          1.756633280498     0.719206894221    -1.540592235878    18.998403224000
           F          0.650143280498    -1.100063105779    -1.494886235878    18.998403224000
           F         -0.370214719502     0.769237894221    -1.681809235878    18.998403224000
           F         -0.567160719502    -0.316773105779     2.347627764122    18.998403224000
           F         -0.675937719502    -1.691559105779     0.724581764122    18.998403224000
           F         -1.759511719502     0.149506894221     0.642694764122    18.998403224000

  Running in c1 symmetry.

  Rotational constants: A =      0.07171  B =      0.03579  C =      0.03155 [cm^-1]
  Rotational constants: A =   2149.66308  B =   1072.93644  C =    945.94748 [MHz]
  Nuclear repulsion =  669.450948506622126

  Charge       = 0
  Multiplicity = 1
  Electrons    = 82
  Nalpha       = 41
  Nbeta        = 41

  ==> Algorithm <==

  SCF Algorithm Type is DF.
  DIIS enabled.
  MOM disabled.
  Fractional occupation disabled.
  Guess Type is CORE.
  Energy threshold   = 1.00e-06
  Density threshold  = 1.00e-06
  Integral threshold = 0.00e+00

  ==> Primary Basis <==

  Basis Set: 6-31G*
    Number of shells: 64
    Number of basis function: 154
    Number of Cartesian functions: 154
    Spherical Harmonics?: false
    Max angular momentum: 2

  ==> Pre-Iterations <==

   -------------------------------------------------------
    Irrep   Nso     Nmo     Nalpha   Nbeta   Ndocc  Nsocc
   -------------------------------------------------------
     A        154     154       0       0       0       0
   -------------------------------------------------------
    Total     154     154      41      41      41       0
   -------------------------------------------------------

 OEINTS: Overlap, kinetic, potential, dipole, and quadrupole integrals
         stored in file 35.

  ==> Integral Setup <==

  ==> DFJK: Density-Fitted J/K Matrices <==

    J tasked:                  Yes
    K tasked:                  Yes
    wK tasked:                  No
    OpenMP threads:              1
    Integrals threads:           1
    Memory (MB):              1430
    Algorithm:                Core
    Integral Cache:           NONE
    Schwarz Cutoff:          1E-12
    Fitting Condition:       1E-12

   => Auxiliary Basis Set <=

  Basis Set: 
    Number of shells: 258
    Number of basis function: 860
    Number of Cartesian functions: 860
    Spherical Harmonics?: false
    Max angular momentum: 3

  Minimum eigenvalue in the overlap matrix is 1.6858166565E-03.
  Using Symmetric Orthogonalization.
  SCF Guess: Core (One-Electron) Hamiltonian.

  ==> Iterations <==

                           Total Energy        Delta E     RMS |[F,P]|

   @DF-RHF iter   1:  -698.66817519465917   -6.98668e+02   6.88992e-02 
   @DF-RHF iter   2:  -531.55788573135965    1.67110e+02   8.61935e-02 DIIS
   @DF-RHF iter   3:  -724.03749559799599   -1.92480e+02   5.70915e-02 DIIS
   @DF-RHF iter   4:  -756.15567212321116   -3.21182e+01   3.69138e-02 DIIS
   @DF-RHF iter   5:  -756.09711266473073    5.85595e-02   3.88992e-02 DIIS
   @DF-RHF iter   6:  -784.97005612726207   -2.88729e+01   1.23114e-02 DIIS
   @DF-RHF iter   7:  -786.19573990848789   -1.22568e+00   2.84630e-03 DIIS
   @DF-RHF iter   8:  -786.25685735850857   -6.11175e-02   1.30504e-03 DIIS
   @DF-RHF iter   9:  -786.27110589461222   -1.42485e-02   4.47806e-04 DIIS
   @DF-RHF iter  10:  -786.27347064382980   -2.36475e-03   1.56962e-04 DIIS
   @DF-RHF iter  11:  -786.27374932770385   -2.78684e-04   4.21527e-05 DIIS
   @DF-RHF iter  12:  -786.27377354639907   -2.42187e-05   1.12683e-05 DIIS
   @DF-RHF iter  13:  -786.27377612563669   -2.57924e-06   2.95324e-06 DIIS
   @DF-RHF iter  14:  -786.27377629838770   -1.72751e-07   9.78750e-07 DIIS

  ==> Post-Iterations <==

    Orbital Energies (a.u.)
    -----------------------

    Doubly Occupied:                                                      

       1A    -26.370417     2A    -26.362034     3A    -26.360055  
       4A    -26.353492     5A    -26.353426     6A    -26.347985  
       7A    -20.614788     8A    -11.526164     9A    -11.524972  
      10A    -11.349327    11A     -1.764246    12A     -1.754102  
      13A     -1.664678    14A     -1.655243    15A     -1.652489  
      16A     -1.645927    17A     -1.433943    18A     -1.101887  
      19A     -0.995562    20A     -0.934276    21A     -0.865133  
      22A     -0.857557    23A     -0.852294    24A     -0.839352  
      25A     -0.830335    26A     -0.787048    27A     -0.755781  
      28A     -0.731102    29A     -0.718360    30A     -0.717059  
      31A     -0.713450    32A     -0.685518    33A     -0.678455  
      34A     -0.666908    35A     -0.664826    36A     -0.660421  
      37A     -0.650732    38A     -0.636053    39A     -0.619256  
      40A     -0.547057    41A     -0.503462  

    Virtual:                                                              

      42A      0.197172    43A      0.252432    44A      0.308110  
      45A      0.343474    46A      0.350191    47A      0.396035  
      48A      0.453012    49A      0.465819    50A      0.468697  
      51A      0.527490    52A      0.545187    53A      0.664120  
      54A      0.676542    55A      0.713260    56A      0.733200  
      57A      0.744139    58A      0.787259    59A      0.814467  
      60A      0.858968    61A      0.901995    62A      0.948100  
      63A      1.029490    64A      1.099861    65A      1.134932  
      66A      1.188552    67A      1.234425    68A      1.260170  
      69A      1.284621    70A      1.306652    71A      1.348701  
      72A      1.355234    73A      1.382542    74A      1.401945  
      75A      1.448236    76A      1.467978    77A      1.519495  
      78A      1.567995    79A      1.581812    80A      1.596368  
      81A      1.609884    82A      1.619730    83A      1.621079  
      84A      1.632292    85A      1.654204    86A      1.658962  
      87A      1.663938    88A      1.673622    89A      1.712906  
      90A      1.741089    91A      1.752825    92A      1.786423  
      93A      1.871396    94A      1.883957    95A      1.932754  
      96A      1.949090    97A      1.972097    98A      1.973187  
      99A      1.999662   100A      2.091368   101A      2.099962  
     102A      2.113811   103A      2.123389   104A      2.127298  
     105A      2.145020   106A      2.154721   107A      2.173983  
     108A      2.187022   109A      2.291812   110A      2.302084  
     111A      2.324601   112A      2.331169   113A      2.347764  
     114A      2.374162   115A      2.395561   116A      2.399337  
     117A      2.408687   118A      2.418234   119A      2.446146  
     120A      2.482890   121A      2.532504   122A      2.552464  
     123A      2.570373   124A      2.610847   125A      2.617859  
     126A      2.694057   127A      2.721921   128A      2.855715  
     129A      2.887985   130A      2.894639   131A      2.947005  
     132A      3.058623   133A      3.153935   134A      3.182120  
     135A      3.197330   136A      3.221441   137A      3.269154  
     138A      3.348774   139A      3.400587   140A      3.417067  
     141A      3.450585   142A      3.455067   143A      3.463751  
     144A      3.486211   145A      4.159946   146A      4.623471  
     147A      4.758015   148A      4.819338   149A      5.036210  
     150A      5.112444   151A      5.269507   152A      5.660324  
     153A      5.799464   154A      6.367999  

    Final Occupation by Irrep:
              A 
    DOCC [    41 ]

  Energy converged.

  @DF-RHF Final Energy:  -786.27377629838770

   => Energetics <=

    Nuclear Repulsion Energy =            669.4509485066221259
    One-Electron Energy =               -2425.9594258404522407
    Two-Electron Energy =                 970.2347010354419581
    DFT Exchange-Correlation Energy =       0.0000000000000000
    Empirical Dispersion Energy =           0.0000000000000000
    PCM Polarization Energy =               0.0000000000000000
    EFP Energy =                            0.0000000000000000
    Total Energy =                       -786.2737762983881566

    Alert: EFP and PCM quantities not currently incorporated into SCF psivars.

Properties will be evaluated at   0.000000,   0.000000,   0.000000 Bohr
  ==> Properties <==


Properties computed using the SCF density matrix

  Nuclear Dipole Moment: (a.u.)
     X:     2.8230      Y:     2.8509      Z:     3.3322

  Electronic Dipole Moment: (a.u.)
     X:    -2.2694      Y:    -2.9198      Z:    -2.3899

  Dipole Moment: (a.u.)
     X:     0.5536      Y:    -0.0689      Z:     0.9423     Total:     1.0950

  Dipole Moment: (Debye)
     X:     1.4071      Y:    -0.1750      Z:     2.3950     Total:     2.7833


  Saving occupied orbitals to File 180.

*** tstop() called on cx1-3-4-4.cx1.hpc.ic.ac.uk at Tue Jul  5 16:48:27 2016
Module time:
	user time   =      16.62 seconds =       0.28 minutes
	system time =       0.20 seconds =       0.00 minutes
	total time  =         17 seconds =       0.28 minutes
Total time:
	user time   =      16.62 seconds =       0.28 minutes
	system time =       0.20 seconds =       0.00 minutes
	total time  =         17 seconds =       0.28 minutes


Properties will be evaluated at   0.000000,   0.000000,   0.000000 Bohr

Properties computed using the  density matrix

  Nuclear Dipole Moment: (a.u.)
     X:     2.8230      Y:     2.8509      Z:     3.3322

  Electronic Dipole Moment: (a.u.)
     X:    -2.2694      Y:    -2.9198      Z:    -2.3899

  Dipole Moment: (a.u.)
     X:     0.5536      Y:    -0.0689      Z:     0.9423     Total:     1.0950

  Dipole Moment: (Debye)
     X:     1.4071      Y:    -0.1750      Z:     2.3950     Total:     2.7833

  Quadrupole Moment: (Debye Ang)
    XX:   -52.9590     YY:   -55.1315     ZZ:   -50.5034
    XY:    -0.6557     XZ:     3.0409     YZ:     3.2166

  Traceless Quadrupole Moment: (Debye Ang)
    XX:    -0.0944     YY:    -2.2669     ZZ:     2.3612
    XY:    -0.6557     XZ:     3.0409     YZ:     3.2166

  Mulliken Charges: (a.u.)
   Center  Symbol    Alpha    Beta     Spin     Total
       1     H     0.26433  0.26433  0.00000  0.47135
       2     O     4.36515  4.36515  0.00000 -0.73030
       3     C     3.04181  3.04181  0.00000 -0.08363
       4     C     2.43409  2.43409  0.00000  1.13182
       5     C     2.45021  2.45021  0.00000  1.09959
       6     H     0.39025  0.39025  0.00000  0.21950
       7     F     4.67551  4.67551  0.00000 -0.35101
       8     F     4.67421  4.67421  0.00000 -0.34841
       9     F     4.67523  4.67523  0.00000 -0.35045
      10     F     4.68104  4.68104  0.00000 -0.36208
      11     F     4.67367  4.67367  0.00000 -0.34735
      12     F     4.67450  4.67450  0.00000 -0.34900

   Total alpha = 41.00000, Total beta = 41.00000, Total charge = -0.00000


*** PSI4 exiting successfully. Buy a developer a beer!
