
    -----------------------------------------------------------------------
          Psi4: An Open-Source Ab Initio Electronic Structure Package
                               Psi4 1.1 release

                         Git: Rev {HEAD} add49b9 


    R. M. Parrish, L. A. Burns, D. G. A. Smith, A. C. Simmonett,
    A. E. DePrince III, E. G. Hohenstein, U. Bozkaya, A. Yu. Sokolov,
    R. Di Remigio, R. M. Richard, J. F. Gonthier, A. M. James,
    H. R. McAlexander, A. Kumar, M. Saitow, X. Wang, B. P. Pritchard,
    P. Verma, H. F. Schaefer III, K. Patkowski, R. A. King, E. F. Valeev,
    F. A. Evangelista, J. M. Turney, T. D. Crawford, and C. D. Sherrill,
    J. Chem. Theory Comput. in press (2017).
    (doi: 10.1021/acs.jctc.7b00174)

    -----------------------------------------------------------------------


    Psi4 started on: Friday, 11 August 2017 01:52PM

    Process ID:   4944
    PSIDATADIR: /home/raimis/opt/miniconda3/envs/htmd/share/psi4
    Memory:     500.0 MiB
    Threads:    1
    
  ==> Input File <==

--------------------------------------------------------------------------
set {
	reference rks
	basis cc-pvdz
}


set_num_threads( 8 )
memory 2 gb

molecule MOL {
0 1

O	 1.014300	 -0.002300	 0.060500
O	 2.462400	 -0.107500	 -0.002400
H	 0.965647	 0.321164	 0.980285
H	 2.655500	 0.713700	 0.488700

	symmetry c1
}
set optking { dynamic_level = 1 }
set optking {
	frozen_dihedral = ("
		3 1 2 4
	")
}

ee,wfn = energy('b3lyp-d3', return_wfn=True)
oeprop( wfn, 'DIPOLE', 'QUADRUPOLE', 'MULLIKEN_CHARGES')
f=open( 'psi4out.xyz', 'w' )
f.write( "4  " )
f.write( str(ee) + "\n" )
f.write( MOL.save_string_xyz() )
f.close()
--------------------------------------------------------------------------
  Threads set to 8 by Python driver.

  Memory set to   1.863 GiB by Python driver.

*** tstart() called on computer03
*** at Fri Aug 11 13:52:55 2017

   => Loading Basis Set <=

    Name: CC-PVDZ
    Role: ORBITAL
    Keyword: BASIS
    atoms 1-2 entry O          line   190 file /home/raimis/opt/miniconda3/envs/htmd/share/psi4/basis/cc-pvdz.gbs 
    atoms 3-4 entry H          line    20 file /home/raimis/opt/miniconda3/envs/htmd/share/psi4/basis/cc-pvdz.gbs 


         ---------------------------------------------------------
                                   SCF
            by Justin Turney, Rob Parrish, and Andy Simmonett
                              RKS Reference
                        8 Threads,   1907 MiB Core
         ---------------------------------------------------------

  ==> Geometry <==

    Molecular point group: c1
    Full point group: C1

    Geometry (in Angstrom), charge = 0, multiplicity = 1:

       Center              X                  Y                   Z               Mass       
    ------------   -----------------  -----------------  -----------------  -----------------
           O         -0.728330995457     0.018675436778    -0.010364591340    15.994914619560
           O          0.719769004543    -0.086524563222    -0.073264591340    15.994914619560
           H         -0.776983995457     0.342139436778     0.909420408660     1.007825032070
           H          0.912869004543     0.734675436778     0.417835408660     1.007825032070

  Running in c1 symmetry.

  Rotational constants: A =      9.47575  B =      0.90979  C =      0.84714 [cm^-1]
  Rotational constants: A = 284075.83594  B =  27274.79463  C =  25396.68664 [MHz]
  Nuclear repulsion =   36.869865990917781

  Charge       = 0
  Multiplicity = 1
  Electrons    = 18
  Nalpha       = 9
  Nbeta        = 9

  ==> Algorithm <==

  SCF Algorithm Type is DF.
  DIIS enabled.
  MOM disabled.
  Fractional occupation disabled.
  Guess Type is SAD.
  Energy threshold   = 1.00e-06
  Density threshold  = 1.00e-06
  Integral threshold = 0.00e+00

  ==> Primary Basis <==

  Basis Set: CC-PVDZ
    Blend: CC-PVDZ
    Number of shells: 18
    Number of basis function: 38
    Number of Cartesian functions: 40
    Spherical Harmonics?: true
    Max angular momentum: 2

  ==> DFT Potential <==

   => B3LYP Composite Functional <= 

    B3LYP Hybrid-GGA Exchange-Correlation Functional (VWN1-RPA)

    P.J. Stephens et. al., J. Phys. Chem., 98, 11623-11627, 1994

    Points   =           5000
    Deriv    =              1
    GGA      =           TRUE
    Meta     =          FALSE

    X_LRC        =          FALSE
    X_Hybrid     =           TRUE
    X_Alpha      =   2.000000E-01
    X_Omega      =   0.000000E+00
    C_LRC        =          FALSE
    C_Hybrid     =          FALSE
    C_Alpha      =   0.000000E+00
    C_Omega      =   0.000000E+00

   => Exchange Functionals <=

    0.8000    B3_X
    0.2000      HF 

   => Correlation Functionals <=

    0.1900 VWN3RPA_C
    0.8100   LYP_C

   => Molecular Quadrature <=

    Radial Scheme    =       TREUTLER
    Pruning Scheme   =           FLAT
    Nuclear Scheme   =       TREUTLER

    BS radius alpha  =              1
    Pruning alpha    =              1
    Radial Points    =             75
    Spherical Points =            302
    Total Points     =          88278
    Total Blocks     =             88
    Max Points       =           4593
    Max Functions    =             38

   => -D3ZERO: Empirical Dispersion <=

    Grimme's -D3 (zero-damping) Dispersion Correction
    Grimme S.; Antony J.; Ehrlich S.; Krieg H. (2010), J. Chem. Phys., 132: 154104

        S6 =   1.000000E+00
        S8 =   1.703000E+00
       SR6 =   1.261000E+00
    ALPHA6 =   1.400000E+01

   => Loading Basis Set <=

    Name: (CC-PVDZ AUX)
    Role: JKFIT
    Keyword: DF_BASIS_SCF
    atoms 1-2 entry O          line   220 file /home/raimis/opt/miniconda3/envs/htmd/share/psi4/basis/cc-pvdz-jkfit.gbs 
    atoms 3-4 entry H          line    50 file /home/raimis/opt/miniconda3/envs/htmd/share/psi4/basis/cc-pvdz-jkfit.gbs 

  ==> Pre-Iterations <==

   -------------------------------------------------------
    Irrep   Nso     Nmo     Nalpha   Nbeta   Ndocc  Nsocc
   -------------------------------------------------------
     A         38      38       0       0       0       0
   -------------------------------------------------------
    Total      38      38       9       9       9       0
   -------------------------------------------------------

  ==> Integral Setup <==

  ==> DFJK: Density-Fitted J/K Matrices <==

    J tasked:                  Yes
    K tasked:                  Yes
    wK tasked:                  No
    OpenMP threads:              8
    Integrals threads:           8
    Memory (MB):              1430
    Algorithm:                Core
    Integral Cache:           NONE
    Schwarz Cutoff:          1E-12
    Fitting Condition:       1E-12

   => Auxiliary Basis Set <=

  Basis Set: (CC-PVDZ AUX)
    Blend: CC-PVDZ-JKFIT
    Number of shells: 66
    Number of basis function: 186
    Number of Cartesian functions: 212
    Spherical Harmonics?: true
    Max angular momentum: 3

  Minimum eigenvalue in the overlap matrix is 2.4849494140E-02.
  Using Symmetric Orthogonalization.

  SCF Guess: Superposition of Atomic Densities via on-the-fly atomic UHF.

  ==> Iterations <==

                           Total Energy        Delta E     RMS |[F,P]|

   @DF-RKS iter   0:  -151.59546568696771   -1.51595e+02   9.18885e-02 
   @DF-RKS iter   1:  -151.49556912010297    9.98966e-02   1.67611e-02 
   @DF-RKS iter   2:  -151.48890614721336    6.66297e-03   1.87296e-02 DIIS
   @DF-RKS iter   3:  -151.53882188345418   -4.99157e-02   1.41045e-03 DIIS
   @DF-RKS iter   4:  -151.53912735338531   -3.05470e-04   4.96238e-04 DIIS
   @DF-RKS iter   5:  -151.53917688712014   -4.95337e-05   3.47600e-04 DIIS
   @DF-RKS iter   6:  -151.53919188702025   -1.49999e-05   8.64062e-06 DIIS
   @DF-RKS iter   7:  -151.53919190267655   -1.56563e-08   2.05598e-06 DIIS
   @DF-RKS iter   8:  -151.53919190352050   -8.43954e-10   2.34720e-07 DIIS

  ==> Post-Iterations <==

    Orbital Energies (a.u.)
    -----------------------

    Doubly Occupied:                                                      

       1A    -19.191838     2A    -19.191805     3A     -1.120481  
       4A     -0.887420     5A     -0.553731     6A     -0.431461  
       7A     -0.427086     8A     -0.343586     9A     -0.256589  

    Virtual:                                                              

      10A      0.018819    11A      0.021034    12A      0.123586  
      13A      0.562113    14A      0.572677    15A      0.861932  
      16A      0.867754    17A      0.910657    18A      0.923692  
      19A      1.012102    20A      1.034274    21A      1.197428  
      22A      1.277001    23A      1.302339    24A      1.530434  
      25A      1.588722    26A      1.762390    27A      2.032096  
      28A      2.083669    29A      2.359688    30A      2.384871  
      31A      2.624759    32A      2.889257    33A      2.898770  
      34A      3.014425    35A      3.143535    36A      3.463883  
      37A      3.567398    38A      3.819862  

    Final Occupation by Irrep:
              A 
    DOCC [     9 ]

  Energy converged.

  @DF-RKS Final Energy:  -151.53919190352050

   => Energetics <=

    Nuclear Repulsion Energy =             36.8698659909177806
    One-Electron Energy =                -281.6259400113361835
    Two-Electron Energy =                 107.6793489164685695
    DFT Exchange-Correlation Energy =     -14.4622777395707107
    Empirical Dispersion Energy =          -0.0001890600000000
    PCM Polarization Energy =               0.0000000000000000
    EFP Energy =                            0.0000000000000000
    Total Energy =                       -151.5391919035205319



Properties will be evaluated at   0.000000,   0.000000,   0.000000 Bohr

Properties computed using the SCF density matrix

  Nuclear Dipole Moment: (a.u.)
     X:     0.1273      Y:     1.0092      Z:     1.2439

  Electronic Dipole Moment: (a.u.)
     X:    -0.0346      Y:    -0.2742      Z:    -0.3379

  Dipole Moment: (a.u.)
     X:     0.0927      Y:     0.7350      Z:     0.9059     Total:     1.1703

  Dipole Moment: (Debye)
     X:     0.2357      Y:     1.8682      Z:     2.3026     Total:     2.9745


*** tstop() called on computer03 at Fri Aug 11 13:52:59 2017
Module time:
	user time   =      15.97 seconds =       0.27 minutes
	system time =       0.51 seconds =       0.01 minutes
	total time  =          4 seconds =       0.07 minutes
Total time:
	user time   =      15.97 seconds =       0.27 minutes
	system time =       0.51 seconds =       0.01 minutes
	total time  =          4 seconds =       0.07 minutes


Properties will be evaluated at   0.000000,   0.000000,   0.000000 Bohr

Properties computed using the  density matrix

  Nuclear Dipole Moment: (a.u.)
     X:     0.1273      Y:     1.0092      Z:     1.2439

  Electronic Dipole Moment: (a.u.)
     X:    -0.0346      Y:    -0.2742      Z:    -0.3379

  Dipole Moment: (a.u.)
     X:     0.0927      Y:     0.7350      Z:     0.9059     Total:     1.1703

  Dipole Moment: (Debye)
     X:     0.2357      Y:     1.8682      Z:     2.3026     Total:     2.9745

  Quadrupole Moment: (Debye Ang)
    XX:   -11.2626     YY:   -10.7535     ZZ:    -9.9738
    XY:     0.9104     XZ:    -0.4906     YZ:     1.4587

  Traceless Quadrupole Moment: (Debye Ang)
    XX:    -0.5993     YY:    -0.0902     ZZ:     0.6895
    XY:     0.9104     XZ:    -0.4906     YZ:     1.4587

  Mulliken Charges: (a.u.)
   Center  Symbol    Alpha    Beta     Spin     Total
       1     O     4.08085  4.08085  0.00000 -0.16169
       2     O     4.08083  4.08083  0.00000 -0.16166
       3     H     0.41915  0.41915  0.00000  0.16169
       4     H     0.41917  0.41917  0.00000  0.16166

   Total alpha =  9.00000, Total beta =  9.00000, Total charge = -0.00000


*** Psi4 exiting successfully. Buy a developer a beer!
