    -----------------------------------------------------------------------
          Psi4: An Open-Source Ab Initio Electronic Structure Package
                              Psi4 (no tag) Driver

                          Git: Rev {detached?}  

    J. M. Turney, A. C. Simmonett, R. M. Parrish, E. G. Hohenstein,
    F. A. Evangelista, J. T. Fermann, B. J. Mintz, L. A. Burns, J. J. Wilke,
    M. L. Abrams, N. J. Russ, M. L. Leininger, C. L. Janssen, E. T. Seidl,
    W. D. Allen, H. F. Schaefer, R. A. King, E. F. Valeev, C. D. Sherrill,
    and T. D. Crawford, WIREs Comput. Mol. Sci. 2, 556-565 (2012)
    (doi: 10.1002/wcms.93)

                         Additional Contributions by
    A. E. DePrince, M. Saitow, U. Bozkaya, A. Yu. Sokolov
    -----------------------------------------------------------------------


    Psi4 started on: Tue Jul  5 16:39:32 2016

    Process ID:  17603
    PSI4DATADIR: /export131/home/mjharvey/miniconda3/share
    Memory level set to 256.000 MB

  ==> Input File <==

--------------------------------------------------------------------------
set {
	reference rhf
	basis 6-31G*
}


set_num_threads( 1 )
memory 2 gb

molecule MOL {
0 1

H	 -3.542881	 0.267597	 0.614452
O	 -3.108537	 -0.248575	 -0.050775
C	 -1.776119	 -0.073162	 -0.006514
C	 -1.169707	 0.770702	 0.919315
C	 -1.009078	 -0.772583	 -0.929836
H	 -1.771518	 1.309139	 1.631508
C	 0.202121	 0.911793	 0.918050
H	 -1.500071	 -1.417303	 -1.633777
C	 0.361808	 -0.620999	 -0.918546
H	 0.683276	 1.559441	 1.626670
C	 0.984182	 0.218375	 0.000000
H	 0.956678	 -1.162782	 -1.633853
C	 2.452467	 0.370529	 0.000000
O	 3.228994	 -0.533774	 0.000000
H	 2.809473	 1.405765	 0.000000

	symmetry c1
}
set optking {
	frozen_dihedral = ("
		5 3 2 1
	")
}

ee = energy('scf')
oeprop('DIPOLE', 'QUADRUPOLE', 'MULLIKEN_CHARGES')
f=open( 'psi4out.xyz', 'w' )
f.write( "15  " )
f.write( str(ee) + "\n" )
f.write( MOL.save_string_xyz() )
f.close()
--------------------------------------------------------------------------

  Memory set to   2.000 GiB by Python script.

*** tstart() called on cx1-1-3-3.cx1.hpc.ic.ac.uk
*** at Tue Jul  5 16:39:32 2016


         ---------------------------------------------------------
                                   SCF
            by Justin Turney, Rob Parrish, and Andy Simmonett
                              RHF Reference
                        1 Threads,   2000 MiB Core
         ---------------------------------------------------------

  ==> Geometry <==

    Molecular point group: c1
    Full point group: C1

    Geometry (in Angstrom), charge = 0, multiplicity = 1:

       Center              X                  Y                   Z               Mass       
    ------------   -----------------  -----------------  -----------------  -----------------
           H         -3.543628626195     0.274812340063     0.617834420016     1.007825032070
           O         -3.109284626195    -0.241359659937    -0.047392579984    15.994914619560
           C         -1.776866626195    -0.065946659937    -0.003131579984    12.000000000000
           C         -1.170454626195     0.777917340063     0.922697420016    12.000000000000
           C         -1.009825626195    -0.765367659937    -0.926453579984    12.000000000000
           H         -1.772265626195     1.316354340063     1.634890420016     1.007825032070
           C          0.201373373805     0.919008340063     0.921432420016    12.000000000000
           H         -1.500818626195    -1.410087659937    -1.630394579984     1.007825032070
           C          0.361060373805    -0.613783659937    -0.915163579984    12.000000000000
           H          0.682528373805     1.566656340063     1.630052420016     1.007825032070
           C          0.983434373805     0.225590340063     0.003382420016    12.000000000000
           H          0.955930373805    -1.155566659937    -1.630470579984     1.007825032070
           C          2.451719373805     0.377744340063     0.003382420016    12.000000000000
           O          3.228246373805    -0.526558659937     0.003382420016    15.994914619560
           H          2.808725373805     1.412980340063     0.003382420016     1.007825032070

  Running in c1 symmetry.

  Rotational constants: A =      0.17163  B =      0.03326  C =      0.02839 [cm^-1]
  Rotational constants: A =   5145.38790  B =    997.15786  C =    851.25853 [MHz]
  Nuclear repulsion =  400.996650770758833

  Charge       = 0
  Multiplicity = 1
  Electrons    = 64
  Nalpha       = 32
  Nbeta        = 32

  ==> Algorithm <==

  SCF Algorithm Type is DF.
  DIIS enabled.
  MOM disabled.
  Fractional occupation disabled.
  Guess Type is CORE.
  Energy threshold   = 1.00e-06
  Density threshold  = 1.00e-06
  Integral threshold = 0.00e+00

  ==> Primary Basis <==

  Basis Set: 6-31G*
    Number of shells: 66
    Number of basis function: 147
    Number of Cartesian functions: 147
    Spherical Harmonics?: false
    Max angular momentum: 2

  ==> Pre-Iterations <==

   -------------------------------------------------------
    Irrep   Nso     Nmo     Nalpha   Nbeta   Ndocc  Nsocc
   -------------------------------------------------------
     A        147     147       0       0       0       0
   -------------------------------------------------------
    Total     147     147      32      32      32       0
   -------------------------------------------------------

 OEINTS: Overlap, kinetic, potential, dipole, and quadrupole integrals
         stored in file 35.

  ==> Integral Setup <==

  ==> DFJK: Density-Fitted J/K Matrices <==

    J tasked:                  Yes
    K tasked:                  Yes
    wK tasked:                  No
    OpenMP threads:              1
    Integrals threads:           1
    Memory (MB):              1430
    Algorithm:                Core
    Integral Cache:           NONE
    Schwarz Cutoff:          1E-12
    Fitting Condition:       1E-12

   => Auxiliary Basis Set <=

  Basis Set: 
    Number of shells: 270
    Number of basis function: 879
    Number of Cartesian functions: 879
    Spherical Harmonics?: false
    Max angular momentum: 3

  Minimum eigenvalue in the overlap matrix is 4.0886011554E-04.
  Using Symmetric Orthogonalization.
  SCF Guess: Core (One-Electron) Hamiltonian.

  ==> Iterations <==

                           Total Energy        Delta E     RMS |[F,P]|

   @DF-RHF iter   1:  -343.03547448257268   -3.43035e+02   6.06755e-02 
   @DF-RHF iter   2:  -201.43436116118414    1.41601e+02   7.49717e-02 DIIS
   @DF-RHF iter   3:  -323.08380704503543   -1.21649e+02   4.91550e-02 DIIS
   @DF-RHF iter   4:  -318.64885906673351    4.43495e+00   5.55001e-02 DIIS
   @DF-RHF iter   5:  -417.24992706058447   -9.86011e+01   1.01544e-02 DIIS
   @DF-RHF iter   6:  -417.82059881346845   -5.70672e-01   7.33587e-03 DIIS
   @DF-RHF iter   7:  -418.26606734837696   -4.45469e-01   8.78238e-04 DIIS
   @DF-RHF iter   8:  -418.27700994917961   -1.09426e-02   3.33556e-04 DIIS
   @DF-RHF iter   9:  -418.27909954438121   -2.08960e-03   1.49194e-04 DIIS
   @DF-RHF iter  10:  -418.27983734302939   -7.37799e-04   7.59581e-05 DIIS
   @DF-RHF iter  11:  -418.28011898474119   -2.81642e-04   3.03158e-05 DIIS
   @DF-RHF iter  12:  -418.28016181993951   -4.28352e-05   1.44898e-05 DIIS
   @DF-RHF iter  13:  -418.28017299972907   -1.11798e-05   4.64464e-06 DIIS
   @DF-RHF iter  14:  -418.28017383642077   -8.36692e-07   1.78871e-06 DIIS
   @DF-RHF iter  15:  -418.28017391443859   -7.80178e-08   5.46392e-07 DIIS

  ==> Post-Iterations <==

    Orbital Energies (a.u.)
    -----------------------

    Doubly Occupied:                                                      

       1A    -20.607052     2A    -20.564195     3A    -11.330615  
       4A    -11.318531     5A    -11.259917     6A    -11.253954  
       7A    -11.245195     8A    -11.241155     9A    -11.236758  
      10A     -1.428486    11A     -1.402168    12A     -1.169478  
      13A     -1.041400    14A     -1.036782    15A     -0.892456  
      16A     -0.858938    17A     -0.802299    18A     -0.754478  
      19A     -0.699608    20A     -0.684355    21A     -0.645171  
      22A     -0.627120    23A     -0.608202    24A     -0.604868  
      25A     -0.588917    26A     -0.559976    27A     -0.533063  
      28A     -0.504386    29A     -0.488050    30A     -0.421340  
      31A     -0.356349    32A     -0.323936  

    Virtual:                                                              

      33A      0.112530    34A      0.127976    35A      0.194675  
      36A      0.211277    37A      0.241353    38A      0.273539  
      39A      0.299569    40A      0.312666    41A      0.334343  
      42A      0.369260    43A      0.411563    44A      0.438339  
      45A      0.452207    46A      0.494242    47A      0.519718  
      48A      0.545974    49A      0.567143    50A      0.688505  
      51A      0.703666    52A      0.731321    53A      0.737714  
      54A      0.752152    55A      0.772907    56A      0.801841  
      57A      0.807345    58A      0.815289    59A      0.826786  
      60A      0.858780    61A      0.877062    62A      0.895621  
      63A      0.902180    64A      0.930198    65A      0.969964  
      66A      1.000223    67A      1.012598    68A      1.043390  
      69A      1.092546    70A      1.097237    71A      1.108529  
      72A      1.119916    73A      1.131852    74A      1.143277  
      75A      1.158759    76A      1.184457    77A      1.207709  
      78A      1.226891    79A      1.239205    80A      1.241646  
      81A      1.289544    82A      1.346609    83A      1.356066  
      84A      1.367060    85A      1.420128    86A      1.434424  
      87A      1.456417    88A      1.482537    89A      1.562741  
      90A      1.610773    91A      1.620564    92A      1.700889  
      93A      1.706912    94A      1.722010    95A      1.770291  
      96A      1.778758    97A      1.822575    98A      1.878444  
      99A      1.940723   100A      2.011546   101A      2.031053  
     102A      2.046841   103A      2.071543   104A      2.097476  
     105A      2.152105   106A      2.170197   107A      2.228291  
     108A      2.241121   109A      2.259628   110A      2.303884  
     111A      2.324692   112A      2.346128   113A      2.404246  
     114A      2.433664   115A      2.443496   116A      2.455861  
     117A      2.568115   118A      2.579089   119A      2.603673  
     120A      2.635171   121A      2.681283   122A      2.745893  
     123A      2.800841   124A      2.843864   125A      2.867367  
     126A      2.939200   127A      2.950630   128A      3.012380  
     129A      3.030148   130A      3.072260   131A      3.098512  
     132A      3.169911   133A      3.254457   134A      3.300623  
     135A      3.332322   136A      3.382166   137A      3.537017  
     138A      3.831275   139A      4.264543   140A      4.352907  
     141A      4.506514   142A      4.529945   143A      4.567036  
     144A      4.665786   145A      4.745063   146A      4.894888  
     147A      5.179741  

    Final Occupation by Irrep:
              A 
    DOCC [    32 ]

  Energy converged.

  @DF-RHF Final Energy:  -418.28017391443859

   => Energetics <=

    Nuclear Repulsion Energy =            400.9966507707588335
    One-Electron Energy =               -1364.3752579604763469
    Two-Electron Energy =                 545.0984332752775572
    DFT Exchange-Correlation Energy =       0.0000000000000000
    Empirical Dispersion Energy =           0.0000000000000000
    PCM Polarization Energy =               0.0000000000000000
    EFP Energy =                            0.0000000000000000
    Total Energy =                       -418.2801739144399562

    Alert: EFP and PCM quantities not currently incorporated into SCF psivars.

Properties will be evaluated at   0.000000,   0.000000,   0.000000 Bohr
  ==> Properties <==


Properties computed using the SCF density matrix

  Nuclear Dipole Moment: (a.u.)
     X:    -2.2208      Y:     1.8761      Z:     0.5860

  Electronic Dipole Moment: (a.u.)
     X:     1.0837      Y:    -0.8045      Z:    -0.1870

  Dipole Moment: (a.u.)
     X:    -1.1371      Y:     1.0716      Z:     0.3990     Total:     1.6126

  Dipole Moment: (Debye)
     X:    -2.8901      Y:     2.7237      Z:     1.0142     Total:     4.0988


  Saving occupied orbitals to File 180.

*** tstop() called on cx1-1-3-3.cx1.hpc.ic.ac.uk at Tue Jul  5 16:39:47 2016
Module time:
	user time   =      14.88 seconds =       0.25 minutes
	system time =       0.09 seconds =       0.00 minutes
	total time  =         15 seconds =       0.25 minutes
Total time:
	user time   =      14.88 seconds =       0.25 minutes
	system time =       0.09 seconds =       0.00 minutes
	total time  =         15 seconds =       0.25 minutes


Properties will be evaluated at   0.000000,   0.000000,   0.000000 Bohr

Properties computed using the  density matrix

  Nuclear Dipole Moment: (a.u.)
     X:    -2.2208      Y:     1.8761      Z:     0.5860

  Electronic Dipole Moment: (a.u.)
     X:     1.0837      Y:    -0.8045      Z:    -0.1870

  Dipole Moment: (a.u.)
     X:    -1.1371      Y:     1.0716      Z:     0.3990     Total:     1.6126

  Dipole Moment: (Debye)
     X:    -2.8901      Y:     2.7237      Z:     1.0142     Total:     4.0988

  Quadrupole Moment: (Debye Ang)
    XX:   -58.1916     YY:   -50.8785     ZZ:   -47.9495
    XY:     2.4208     XZ:    -5.0945     YZ:     4.8076

  Traceless Quadrupole Moment: (Debye Ang)
    XX:    -5.8517     YY:     1.4614     ZZ:     4.3904
    XY:     2.4208     XZ:    -5.0945     YZ:     4.8076

  Mulliken Charges: (a.u.)
   Center  Symbol    Alpha    Beta     Spin     Total
       1     H     0.26949  0.26949  0.00000  0.46103
       2     O     4.37376  4.37376  0.00000 -0.74752
       3     C     2.78940  2.78940  0.00000  0.42119
       4     C     3.14499  3.14499  0.00000 -0.28998
       5     C     3.12476  3.12476  0.00000 -0.24951
       6     H     0.39925  0.39925  0.00000  0.20149
       7     C     3.09281  3.09281  0.00000 -0.18562
       8     H     0.38591  0.38591  0.00000  0.22818
       9     C     3.08595  3.08595  0.00000 -0.17190
      10     H     0.39084  0.39084  0.00000  0.21832
      11     C     3.05146  3.05146  0.00000 -0.10292
      12     H     0.38295  0.38295  0.00000  0.23410
      13     C     2.84735  2.84735  0.00000  0.30529
      14     O     4.23486  4.23486  0.00000 -0.46973
      15     H     0.42621  0.42621  0.00000  0.14757

   Total alpha = 32.00000, Total beta = 32.00000, Total charge =  0.00000


*** PSI4 exiting successfully. Buy a developer a beer!
