    -----------------------------------------------------------------------
          Psi4: An Open-Source Ab Initio Electronic Structure Package
                              Psi4 (no tag) Driver

                          Git: Rev {detached?}  

    J. M. Turney, A. C. Simmonett, R. M. Parrish, E. G. Hohenstein,
    F. A. Evangelista, J. T. Fermann, B. J. Mintz, L. A. Burns, J. J. Wilke,
    M. L. Abrams, N. J. Russ, M. L. Leininger, C. L. Janssen, E. T. Seidl,
    W. D. Allen, H. F. Schaefer, R. A. King, E. F. Valeev, C. D. Sherrill,
    and T. D. Crawford, WIREs Comput. Mol. Sci. 2, 556-565 (2012)
    (doi: 10.1002/wcms.93)

                         Additional Contributions by
    A. E. DePrince, M. Saitow, U. Bozkaya, A. Yu. Sokolov
    -----------------------------------------------------------------------


    Psi4 started on: Tue Jul  5 16:33:46 2016

    Process ID:  20660
    PSI4DATADIR: /export131/home/mjharvey/miniconda3/share
    Memory level set to 256.000 MB

  ==> Input File <==

--------------------------------------------------------------------------
set {
	reference rhf
	basis 6-31G*
}


set_num_threads( 1 )
memory 2 gb

molecule MOL {
0 1

O	 1.066834	 -2.032293	 1.712165
C	 0.275803	 -1.645901	 0.914452
C	 -1.147444	 -2.120194	 0.804999
O	 0.550821	 -0.724572	 0.000672
H	 -1.823175	 -1.281819	 0.928282
H	 -1.339790	 -2.865528	 1.562212
H	 -1.318951	 -2.538157	 -0.180127
C	 -0.063984	 0.541426	 0.160493
H	 0.359540	 1.258582	 -0.527745
H	 0.133022	 0.838361	 1.178711
H	 -1.128506	 0.470434	 -0.010082

	symmetry c1
}
set optking {
	frozen_dihedral = ("
		2 4 8 9
	")
}

ee = energy('scf')
oeprop('DIPOLE', 'QUADRUPOLE', 'MULLIKEN_CHARGES')
f=open( 'psi4out.xyz', 'w' )
f.write( "11  " )
f.write( str(ee) + "\n" )
f.write( MOL.save_string_xyz() )
f.close()
--------------------------------------------------------------------------

  Memory set to   2.000 GiB by Python script.

*** tstart() called on cx1-1-4-3.cx1.hpc.ic.ac.uk
*** at Tue Jul  5 16:33:46 2016


         ---------------------------------------------------------
                                   SCF
            by Justin Turney, Rob Parrish, and Andy Simmonett
                              RHF Reference
                        1 Threads,   2000 MiB Core
         ---------------------------------------------------------

  ==> Geometry <==

    Molecular point group: c1
    Full point group: C1

    Geometry (in Angstrom), charge = 0, multiplicity = 1:

       Center              X                  Y                   Z               Mass       
    ------------   -----------------  -----------------  -----------------  -----------------
           O          0.938670048743    -0.857982063786     0.997245272098    15.994914619560
           C          0.147639048743    -0.471590063786     0.199532272098    12.000000000000
           C         -1.275607951257    -0.945883063786     0.090079272098    12.000000000000
           O          0.422657048743     0.449738936214    -0.714247727902    15.994914619560
           H         -1.951338951257    -0.107508063786     0.213362272098     1.007825032070
           H         -1.467953951257    -1.691217063786     0.847292272098     1.007825032070
           H         -1.447114951257    -1.363846063786    -0.895046727902     1.007825032070
           C         -0.192147951257     1.715736936214    -0.554426727902    12.000000000000
           H          0.231376048743     2.432892936214    -1.242664727902     1.007825032070
           H          0.004858048743     2.012671936214     0.463791272098     1.007825032070
           H         -1.256669951257     1.644744936214    -0.725001727902     1.007825032070

  Running in c1 symmetry.

  Rotational constants: A =      0.28059  B =      0.15270  C =      0.11209 [cm^-1]
  Rotational constants: A =   8411.80881  B =   4577.69816  C =   3360.25598 [MHz]
  Nuclear repulsion =  183.762698773265669

  Charge       = 0
  Multiplicity = 1
  Electrons    = 40
  Nalpha       = 20
  Nbeta        = 20

  ==> Algorithm <==

  SCF Algorithm Type is DF.
  DIIS enabled.
  MOM disabled.
  Fractional occupation disabled.
  Guess Type is CORE.
  Energy threshold   = 1.00e-06
  Density threshold  = 1.00e-06
  Integral threshold = 0.00e+00

  ==> Primary Basis <==

  Basis Set: 6-31G*
    Number of shells: 42
    Number of basis function: 87
    Number of Cartesian functions: 87
    Spherical Harmonics?: false
    Max angular momentum: 2

  ==> Pre-Iterations <==

   -------------------------------------------------------
    Irrep   Nso     Nmo     Nalpha   Nbeta   Ndocc  Nsocc
   -------------------------------------------------------
     A         87      87       0       0       0       0
   -------------------------------------------------------
    Total      87      87      20      20      20       0
   -------------------------------------------------------

 OEINTS: Overlap, kinetic, potential, dipole, and quadrupole integrals
         stored in file 35.

  ==> Integral Setup <==

  ==> DFJK: Density-Fitted J/K Matrices <==

    J tasked:                  Yes
    K tasked:                  Yes
    wK tasked:                  No
    OpenMP threads:              1
    Integrals threads:           1
    Memory (MB):              1430
    Algorithm:                Core
    Integral Cache:           NONE
    Schwarz Cutoff:          1E-12
    Fitting Condition:       1E-12

   => Auxiliary Basis Set <=

  Basis Set: 
    Number of shells: 174
    Number of basis function: 555
    Number of Cartesian functions: 555
    Spherical Harmonics?: false
    Max angular momentum: 3

  Minimum eigenvalue in the overlap matrix is 4.0706288764E-03.
  Using Symmetric Orthogonalization.
  SCF Guess: Core (One-Electron) Hamiltonian.

  ==> Iterations <==

                           Total Energy        Delta E     RMS |[F,P]|

   @DF-RHF iter   1:  -212.61784133762833   -2.12618e+02   8.89467e-02 
   @DF-RHF iter   2:  -205.73015325434071    6.88769e+00   6.24185e-02 DIIS
   @DF-RHF iter   3:  -229.21274860970104   -2.34826e+01   7.23093e-02 DIIS
   @DF-RHF iter   4:  -258.41974852310182   -2.92070e+01   4.19418e-02 DIIS
   @DF-RHF iter   5:  -264.21566086763414   -5.79591e+00   2.30056e-02 DIIS
   @DF-RHF iter   6:  -266.20672171520118   -1.99106e+00   1.11325e-02 DIIS
   @DF-RHF iter   7:  -266.71188546482745   -5.05164e-01   4.30428e-03 DIIS
   @DF-RHF iter   8:  -266.80233701203258   -9.04515e-02   1.20076e-03 DIIS
   @DF-RHF iter   9:  -266.80913160669081   -6.79459e-03   6.06417e-04 DIIS
   @DF-RHF iter  10:  -266.81091732881112   -1.78572e-03   1.86900e-04 DIIS
   @DF-RHF iter  11:  -266.81113014723542   -2.12818e-04   6.33588e-05 DIIS
   @DF-RHF iter  12:  -266.81116950115552   -3.93539e-05   2.66761e-05 DIIS
   @DF-RHF iter  13:  -266.81117474636494   -5.24521e-06   7.69360e-06 DIIS
   @DF-RHF iter  14:  -266.81117536849752   -6.22133e-07   2.31519e-06 DIIS
   @DF-RHF iter  15:  -266.81117542266065   -5.41631e-08   5.39604e-07 DIIS

  ==> Post-Iterations <==

    Orbital Energies (a.u.)
    -----------------------

    Doubly Occupied:                                                      

       1A    -20.590729     2A    -20.556270     3A    -11.378772  
       4A    -11.299699     5A    -11.236988     6A     -1.466250  
       7A     -1.370727     8A     -1.024934     9A     -0.977200  
      10A     -0.782437    11A     -0.694222    12A     -0.688493  
      13A     -0.680040    14A     -0.620115    15A     -0.589352  
      16A     -0.575948    17A     -0.546387    18A     -0.490225  
      19A     -0.462707    20A     -0.441176  

    Virtual:                                                              

      21A      0.175489    22A      0.220775    23A      0.274940  
      24A      0.287687    25A      0.302019    26A      0.305308  
      27A      0.342264    28A      0.355577    29A      0.404492  
      30A      0.509021    31A      0.555635    32A      0.706129  
      33A      0.735302    34A      0.744388    35A      0.780157  
      36A      0.806484    37A      0.835130    38A      0.855590  
      39A      0.924377    40A      0.969134    41A      1.029875  
      42A      1.103354    43A      1.105824    44A      1.128949  
      45A      1.150758    46A      1.165202    47A      1.195787  
      48A      1.248103    49A      1.252924    50A      1.281630  
      51A      1.352469    52A      1.365740    53A      1.390545  
      54A      1.442058    55A      1.589609    56A      1.673836  
      57A      1.706392    58A      1.786871    59A      1.845901  
      60A      1.947371    61A      2.028834    62A      2.068405  
      63A      2.121652    64A      2.149588    65A      2.187057  
      66A      2.231283    67A      2.323162    68A      2.386992  
      69A      2.399180    70A      2.467859    71A      2.538179  
      72A      2.574617    73A      2.643175    74A      2.683684  
      75A      2.727047    76A      2.790729    77A      3.006477  
      78A      3.132332    79A      3.238118    80A      3.254220  
      81A      3.366655    82A      3.495696    83A      4.365084  
      84A      4.524777    85A      4.625471    86A      4.660690  
      87A      4.902946  

    Final Occupation by Irrep:
              A 
    DOCC [    20 ]

  Energy converged.

  @DF-RHF Final Energy:  -266.81117542266065

   => Energetics <=

    Nuclear Repulsion Energy =            183.7626987732656687
    One-Electron Energy =                -728.2023950076130632
    Two-Electron Energy =                 277.6285208116872809
    DFT Exchange-Correlation Energy =       0.0000000000000000
    Empirical Dispersion Energy =           0.0000000000000000
    PCM Polarization Energy =               0.0000000000000000
    EFP Energy =                            0.0000000000000000
    Total Energy =                       -266.8111754226600851

    Alert: EFP and PCM quantities not currently incorporated into SCF psivars.

Properties will be evaluated at   0.000000,   0.000000,   0.000000 Bohr
  ==> Properties <==


Properties computed using the SCF density matrix

  Nuclear Dipole Moment: (a.u.)
     X:    -5.5122      Y:     2.7427      Z:    -1.2532

  Electronic Dipole Moment: (a.u.)
     X:     4.2227      Y:    -1.9607      Z:     0.7858

  Dipole Moment: (a.u.)
     X:    -1.2895      Y:     0.7820      Z:    -0.4675     Total:     1.5789

  Dipole Moment: (Debye)
     X:    -3.2776      Y:     1.9876      Z:    -1.1882     Total:     4.0131


  Saving occupied orbitals to File 180.

*** tstop() called on cx1-1-4-3.cx1.hpc.ic.ac.uk at Tue Jul  5 16:33:51 2016
Module time:
	user time   =       4.23 seconds =       0.07 minutes
	system time =       0.04 seconds =       0.00 minutes
	total time  =          5 seconds =       0.08 minutes
Total time:
	user time   =       4.23 seconds =       0.07 minutes
	system time =       0.04 seconds =       0.00 minutes
	total time  =          5 seconds =       0.08 minutes


Properties will be evaluated at   0.000000,   0.000000,   0.000000 Bohr

Properties computed using the  density matrix

  Nuclear Dipole Moment: (a.u.)
     X:    -5.5122      Y:     2.7427      Z:    -1.2532

  Electronic Dipole Moment: (a.u.)
     X:     4.2227      Y:    -1.9607      Z:     0.7858

  Dipole Moment: (a.u.)
     X:    -1.2895      Y:     0.7820      Z:    -0.4675     Total:     1.5789

  Dipole Moment: (Debye)
     X:    -3.2776      Y:     1.9876      Z:    -1.1882     Total:     4.0131

  Quadrupole Moment: (Debye Ang)
    XX:   -31.8087     YY:   -26.3199     ZZ:   -32.3341
    XY:     1.4638     XZ:    -1.3747     YZ:     1.0979

  Traceless Quadrupole Moment: (Debye Ang)
    XX:    -1.6545     YY:     3.8344     ZZ:    -2.1799
    XY:     1.4638     XZ:    -1.3747     YZ:     1.0979

  Mulliken Charges: (a.u.)
   Center  Symbol    Alpha    Beta     Spin     Total
       1     O     4.25375  4.25375  0.00000 -0.50751
       2     C     2.62912  2.62912  0.00000  0.74175
       3     C     3.29328  3.29328  0.00000 -0.58655
       4     O     4.30052  4.30052  0.00000 -0.60105
       5     H     0.40725  0.40725  0.00000  0.18550
       6     H     0.39599  0.39599  0.00000  0.20802
       7     H     0.39787  0.39787  0.00000  0.20426
       8     C     3.09508  3.09508  0.00000 -0.19016
       9     H     0.39771  0.39771  0.00000  0.20458
      10     H     0.41088  0.41088  0.00000  0.17824
      11     H     0.41855  0.41855  0.00000  0.16291

   Total alpha = 20.00000, Total beta = 20.00000, Total charge = -0.00000


*** PSI4 exiting successfully. Buy a developer a beer!
