    -----------------------------------------------------------------------
          Psi4: An Open-Source Ab Initio Electronic Structure Package
                              Psi4 (no tag) Driver

                          Git: Rev {detached?}  

    J. M. Turney, A. C. Simmonett, R. M. Parrish, E. G. Hohenstein,
    F. A. Evangelista, J. T. Fermann, B. J. Mintz, L. A. Burns, J. J. Wilke,
    M. L. Abrams, N. J. Russ, M. L. Leininger, C. L. Janssen, E. T. Seidl,
    W. D. Allen, H. F. Schaefer, R. A. King, E. F. Valeev, C. D. Sherrill,
    and T. D. Crawford, WIREs Comput. Mol. Sci. 2, 556-565 (2012)
    (doi: 10.1002/wcms.93)

                         Additional Contributions by
    A. E. DePrince, M. Saitow, U. Bozkaya, A. Yu. Sokolov
    -----------------------------------------------------------------------


    Psi4 started on: Tue Jul  5 16:42:24 2016

    Process ID:   9053
    PSI4DATADIR: /export131/home/mjharvey/miniconda3/share
    Memory level set to 256.000 MB

  ==> Input File <==

--------------------------------------------------------------------------
set {
	reference rhf
	basis 6-31G*
}


set_num_threads( 1 )
memory 2 gb

molecule MOL {
0 1

H	 2.465083	 -2.224397	 -0.000000
O	 2.783932	 -1.332189	 0.000000
C	 1.765058	 -0.449538	 -0.000000
C	 2.091753	 0.902946	 0.000000
C	 0.440676	 -0.842152	 -0.000000
H	 3.128399	 1.182630	 0.000000
C	 1.093457	 1.855033	 -0.000000
H	 0.160343	 -1.877014	 -0.000000
C	 -0.536413	 0.140251	 -0.000000
H	 1.354643	 2.896973	 0.000000
C	 -0.245031	 1.485853	 -0.000000
N	 -1.935859	 -0.280507	 -0.000000
H	 -1.030560	 2.212729	 -0.000000
O	 -2.161949	 -1.453075	 0.000000
O	 -2.770596	 0.571243	 0.000000

	symmetry c1
}
ee = energy('scf')
oeprop('DIPOLE', 'QUADRUPOLE', 'MULLIKEN_CHARGES')
oeprop('GRID_ESP')
f=open( 'psi4out.xyz', 'w' )
f.write( "15  " )
f.write( str(ee) + "\n" )
f.write( MOL.save_string_xyz() )
f.close()
--------------------------------------------------------------------------

  Memory set to   2.000 GiB by Python script.

*** tstart() called on cx1-1-4-3.cx1.hpc.ic.ac.uk
*** at Tue Jul  5 16:42:25 2016


         ---------------------------------------------------------
                                   SCF
            by Justin Turney, Rob Parrish, and Andy Simmonett
                              RHF Reference
                        1 Threads,   2000 MiB Core
         ---------------------------------------------------------

  ==> Geometry <==

    Molecular point group: c1
    Full point group: Cs

    Geometry (in Angstrom), charge = 0, multiplicity = 1:

       Center              X                  Y                   Z               Mass       
    ------------   -----------------  -----------------  -----------------  -----------------
           H          2.465337558573    -2.224222529403     0.000000000000     1.007825032070
           O          2.784186558573    -1.332014529403     0.000000000000    15.994914619560
           C          1.765312558573    -0.449363529403     0.000000000000    12.000000000000
           C          2.092007558573     0.903120470597     0.000000000000    12.000000000000
           C          0.440930558573    -0.841977529403     0.000000000000    12.000000000000
           H          3.128653558573     1.182804470597     0.000000000000     1.007825032070
           C          1.093711558573     1.855207470597     0.000000000000    12.000000000000
           H          0.160597558573    -1.876839529403     0.000000000000     1.007825032070
           C         -0.536158441427     0.140425470597     0.000000000000    12.000000000000
           H          1.354897558573     2.897147470597     0.000000000000     1.007825032070
           C         -0.244776441427     1.486027470597     0.000000000000    12.000000000000
           N         -1.935604441427    -0.280332529403     0.000000000000    14.003074004780
           H         -1.030305441427     2.212903470597     0.000000000000     1.007825032070
           O         -2.161694441427    -1.452900529403     0.000000000000    15.994914619560
           O         -2.770341441427     0.571417470597     0.000000000000    15.994914619560

  Running in c1 symmetry.

  Rotational constants: A =      0.09336  B =      0.03347  C =      0.02464 [cm^-1]
  Rotational constants: A =   2798.93812  B =   1003.41492  C =    738.62060 [MHz]
  Nuclear repulsion =  503.481200836493429

  Charge       = 0
  Multiplicity = 1
  Electrons    = 72
  Nalpha       = 36
  Nbeta        = 36

  ==> Algorithm <==

  SCF Algorithm Type is DF.
  DIIS enabled.
  MOM disabled.
  Fractional occupation disabled.
  Guess Type is CORE.
  Energy threshold   = 1.00e-06
  Density threshold  = 1.00e-06
  Integral threshold = 0.00e+00

  ==> Primary Basis <==

  Basis Set: 6-31G*
    Number of shells: 70
    Number of basis function: 160
    Number of Cartesian functions: 160
    Spherical Harmonics?: false
    Max angular momentum: 2

  ==> Pre-Iterations <==

   -------------------------------------------------------
    Irrep   Nso     Nmo     Nalpha   Nbeta   Ndocc  Nsocc
   -------------------------------------------------------
     A        160     160       0       0       0       0
   -------------------------------------------------------
    Total     160     160      36      36      36       0
   -------------------------------------------------------

 OEINTS: Overlap, kinetic, potential, dipole, and quadrupole integrals
         stored in file 35.

  ==> Integral Setup <==

  ==> DFJK: Density-Fitted J/K Matrices <==

    J tasked:                  Yes
    K tasked:                  Yes
    wK tasked:                  No
    OpenMP threads:              1
    Integrals threads:           1
    Memory (MB):              1430
    Algorithm:                Core
    Integral Cache:           NONE
    Schwarz Cutoff:          1E-12
    Fitting Condition:       1E-12

   => Auxiliary Basis Set <=

  Basis Set: 
    Number of shells: 285
    Number of basis function: 935
    Number of Cartesian functions: 935
    Spherical Harmonics?: false
    Max angular momentum: 3

  Minimum eigenvalue in the overlap matrix is 4.1746846932E-04.
  Using Symmetric Orthogonalization.
  SCF Guess: Core (One-Electron) Hamiltonian.

  ==> Iterations <==

                           Total Energy        Delta E     RMS |[F,P]|

   @DF-RHF iter   1:  -421.65611268845174   -4.21656e+02   6.02646e-02 
   @DF-RHF iter   2:  -308.81509850150559    1.12841e+02   5.75640e-02 DIIS
   @DF-RHF iter   3:  -328.41680021851136   -1.96017e+01   7.12470e-02 DIIS
   @DF-RHF iter   4:  -492.53280546339505   -1.64116e+02   2.46037e-02 DIIS
   @DF-RHF iter   5:  -484.30340885742129    8.22940e+00   3.69176e-02 DIIS
   @DF-RHF iter   6:  -507.57555121878050   -2.32721e+01   1.00567e-02 DIIS
   @DF-RHF iter   7:  -508.69151492405632   -1.11596e+00   4.50404e-03 DIIS
   @DF-RHF iter   8:  -508.92224048006318   -2.30726e-01   2.30384e-03 DIIS
   @DF-RHF iter   9:  -509.02075490880173   -9.85144e-02   6.23484e-04 DIIS
   @DF-RHF iter  10:  -509.02615948532542   -5.40458e-03   2.37722e-04 DIIS
   @DF-RHF iter  11:  -509.02735882987969   -1.19934e-03   9.86856e-05 DIIS
   @DF-RHF iter  12:  -509.02762463032644   -2.65800e-04   6.23882e-05 DIIS
   @DF-RHF iter  13:  -509.02773662489420   -1.11995e-04   2.37517e-05 DIIS
   @DF-RHF iter  14:  -509.02776338323469   -2.67583e-05   8.15780e-06 DIIS
   @DF-RHF iter  15:  -509.02776795038648   -4.56715e-06   3.22594e-06 DIIS
   @DF-RHF iter  16:  -509.02776871356281   -7.63176e-07   1.14067e-06 DIIS
   @DF-RHF iter  17:  -509.02776878423361   -7.06708e-08   4.05032e-07 DIIS

  ==> Post-Iterations <==

    Orbital Energies (a.u.)
    -----------------------

    Doubly Occupied:                                                      

       1A    -20.615782     2A    -20.605166     3A    -20.604594  
       4A    -15.859547     5A    -11.330578     6A    -11.311196  
       7A    -11.267287     8A    -11.266830     9A    -11.263685  
      10A    -11.260799    11A     -1.638338    12A     -1.436486  
      13A     -1.421609    14A     -1.200537    15A     -1.095032  
      16A     -1.046475    17A     -0.966221    18A     -0.878683  
      19A     -0.828640    20A     -0.791178    21A     -0.751997  
      22A     -0.737249    23A     -0.724072    24A     -0.707852  
      25A     -0.673241    26A     -0.635199    27A     -0.615878  
      28A     -0.594707    29A     -0.558635    30A     -0.545101  
      31A     -0.515292    32A     -0.492263    33A     -0.490163  
      34A     -0.455004    35A     -0.377464    36A     -0.342942  

    Virtual:                                                              

      37A      0.057049    38A      0.127622    39A      0.182038  
      40A      0.204145    41A      0.228761    42A      0.294622  
      43A      0.297002    44A      0.323901    45A      0.359759  
      46A      0.381815    47A      0.425923    48A      0.446098  
      49A      0.451743    50A      0.517993    51A      0.535040  
      52A      0.548147    53A      0.604343    54A      0.676750  
      55A      0.696800    56A      0.709892    57A      0.713727  
      58A      0.750710    59A      0.786463    60A      0.797499  
      61A      0.799359    62A      0.812954    63A      0.831401  
      64A      0.868727    65A      0.877661    66A      0.884042  
      67A      0.886691    68A      0.947003    69A      0.978257  
      70A      0.979000    71A      0.996363    72A      1.026938  
      73A      1.044303    74A      1.074105    75A      1.089995  
      76A      1.092220    77A      1.135905    78A      1.157489  
      79A      1.169479    80A      1.177036    81A      1.215510  
      82A      1.224389    83A      1.235663    84A      1.249022  
      85A      1.282522    86A      1.283306    87A      1.293662  
      88A      1.335937    89A      1.391596    90A      1.401606  
      91A      1.458401    92A      1.460632    93A      1.496877  
      94A      1.524484    95A      1.574154    96A      1.604645  
      97A      1.604963    98A      1.649308    99A      1.662437  
     100A      1.693958   101A      1.713309   102A      1.728834  
     103A      1.736032   104A      1.762154   105A      1.943016  
     106A      1.981385   107A      2.004238   108A      2.015504  
     109A      2.047497   110A      2.070666   111A      2.075783  
     112A      2.105171   113A      2.107328   114A      2.164391  
     115A      2.216756   116A      2.231623   117A      2.233713  
     118A      2.264129   119A      2.267975   120A      2.289501  
     121A      2.369907   122A      2.385376   123A      2.438282  
     124A      2.456308   125A      2.462660   126A      2.480797  
     127A      2.550227   128A      2.588946   129A      2.602585  
     130A      2.609481   131A      2.735692   132A      2.758259  
     133A      2.803756   134A      2.851117   135A      2.892338  
     136A      2.936098   137A      2.951785   138A      2.967268  
     139A      3.008963   140A      3.092932   141A      3.104977  
     142A      3.127832   143A      3.160533   144A      3.258538  
     145A      3.282119   146A      3.301096   147A      3.406927  
     148A      3.501476   149A      3.608787   150A      3.838207  
     151A      4.173639   152A      4.289461   153A      4.374284  
     154A      4.460307   155A      4.503984   156A      4.533303  
     157A      4.612543   158A      4.758637   159A      4.870997  
     160A      5.160763  

    Final Occupation by Irrep:
              A 
    DOCC [    36 ]

  Energy converged.

  @DF-RHF Final Energy:  -509.02776878423361

   => Energetics <=

    Nuclear Repulsion Energy =            503.4812008364934286
    One-Electron Energy =               -1693.2063408023288957
    Two-Electron Energy =                 680.6973711816020796
    DFT Exchange-Correlation Energy =       0.0000000000000000
    Empirical Dispersion Energy =           0.0000000000000000
    PCM Polarization Energy =               0.0000000000000000
    EFP Energy =                            0.0000000000000000
    Total Energy =                       -509.0277687842334444

    Alert: EFP and PCM quantities not currently incorporated into SCF psivars.

Properties will be evaluated at   0.000000,   0.000000,   0.000000 Bohr
  ==> Properties <==


Properties computed using the SCF density matrix

  Nuclear Dipole Moment: (a.u.)
     X:     5.6943      Y:     2.0449      Z:     0.0000

  Electronic Dipole Moment: (a.u.)
     X:    -4.2380      Y:    -1.8349      Z:     0.0000

  Dipole Moment: (a.u.)
     X:     1.4563      Y:     0.2101      Z:     0.0000     Total:     1.4714

  Dipole Moment: (Debye)
     X:     3.7016      Y:     0.5339      Z:     0.0000     Total:     3.7399


  Saving occupied orbitals to File 180.

*** tstop() called on cx1-1-4-3.cx1.hpc.ic.ac.uk at Tue Jul  5 16:42:46 2016
Module time:
	user time   =      21.00 seconds =       0.35 minutes
	system time =       0.22 seconds =       0.00 minutes
	total time  =         21 seconds =       0.35 minutes
Total time:
	user time   =      21.00 seconds =       0.35 minutes
	system time =       0.22 seconds =       0.00 minutes
	total time  =         21 seconds =       0.35 minutes


Properties will be evaluated at   0.000000,   0.000000,   0.000000 Bohr

Properties computed using the  density matrix

  Nuclear Dipole Moment: (a.u.)
     X:     5.6943      Y:     2.0449      Z:     0.0000

  Electronic Dipole Moment: (a.u.)
     X:    -4.2380      Y:    -1.8349      Z:     0.0000

  Dipole Moment: (a.u.)
     X:     1.4563      Y:     0.2101      Z:     0.0000     Total:     1.4714

  Dipole Moment: (Debye)
     X:     3.7016      Y:     0.5339      Z:     0.0000     Total:     3.7399

  Quadrupole Moment: (Debye Ang)
    XX:   -69.1308     YY:   -47.6261     ZZ:   -57.9993
    XY:    -2.1837     XZ:     0.0000     YZ:     0.0000

  Traceless Quadrupole Moment: (Debye Ang)
    XX:   -10.8787     YY:    10.6260     ZZ:     0.2528
    XY:    -2.1837     XZ:     0.0000     YZ:     0.0000

  Mulliken Charges: (a.u.)
   Center  Symbol    Alpha    Beta     Spin     Total
       1     H     0.26725  0.26725  0.00000  0.46549
       2     O     4.37577  4.37577  0.00000 -0.75154
       3     C     2.79130  2.79130  0.00000  0.41740
       4     C     3.10848  3.10848  0.00000 -0.21695
       5     C     3.13722  3.13722  0.00000 -0.27445
       6     H     0.38086  0.38086  0.00000  0.23827
       7     C     3.10056  3.10056  0.00000 -0.20113
       8     H     0.36792  0.36792  0.00000  0.26417
       9     C     2.91369  2.91369  0.00000  0.17261
      10     H     0.38657  0.38657  0.00000  0.22687
      11     C     3.09782  3.09782  0.00000 -0.19564
      12     N     3.24016  3.24016  0.00000  0.51967
      13     H     0.36520  0.36520  0.00000  0.26961
      14     O     4.23555  4.23555  0.00000 -0.47109
      15     O     4.23164  4.23164  0.00000 -0.46328

   Total alpha = 36.00000, Total beta = 36.00000, Total charge = -0.00000



Properties will be evaluated at   0.000000,   0.000000,   0.000000 Bohr

Properties computed using the  density matrix


 Electrostatic potential computed on the grid and written to grid_esp.dat

*** PSI4 exiting successfully. Buy a developer a beer!
