    -----------------------------------------------------------------------
          Psi4: An Open-Source Ab Initio Electronic Structure Package
                              Psi4 (no tag) Driver

                          Git: Rev {detached?}  

    J. M. Turney, A. C. Simmonett, R. M. Parrish, E. G. Hohenstein,
    F. A. Evangelista, J. T. Fermann, B. J. Mintz, L. A. Burns, J. J. Wilke,
    M. L. Abrams, N. J. Russ, M. L. Leininger, C. L. Janssen, E. T. Seidl,
    W. D. Allen, H. F. Schaefer, R. A. King, E. F. Valeev, C. D. Sherrill,
    and T. D. Crawford, WIREs Comput. Mol. Sci. 2, 556-565 (2012)
    (doi: 10.1002/wcms.93)

                         Additional Contributions by
    A. E. DePrince, M. Saitow, U. Bozkaya, A. Yu. Sokolov
    -----------------------------------------------------------------------


    Psi4 started on: Tue Jul  5 18:18:27 2016

    Process ID:   6455
    PSI4DATADIR: /export131/home/mjharvey/miniconda3/share
    Memory level set to 256.000 MB

  ==> Input File <==

--------------------------------------------------------------------------
set {
	reference rhf
	basis 6-31G*
}


set_num_threads( 1 )
memory 2 gb

molecule MOL {
0 1

H	 -2.713253	 0.125323	 0.890300
O	 -1.797526	 0.132992	 0.652691
C	 -1.669334	 0.330596	 -0.732435
C	 -1.987501	 1.756644	 -1.168192
H	 -0.639093	 0.097419	 -0.968881
H	 -2.293898	 -0.376158	 -1.277593
C	 -1.305276	 2.833256	 -0.320640
H	 -1.696050	 1.872358	 -2.208881
H	 -3.066927	 1.891782	 -1.124100
C	 -1.849445	 2.892963	 1.109442
H	 -1.435422	 3.799992	 -0.799023
H	 -0.232643	 2.641784	 -0.286910
C	 -1.980625	 1.533457	 1.805772
H	 -1.213964	 3.543697	 1.707402
H	 -2.829741	 3.364377	 1.087303
C	 -3.034785	 0.600176	 1.203932
H	 -1.014136	 1.035218	 1.767406
H	 -2.197695	 1.689786	 2.861367
C	 -4.465221	 1.099239	 1.418936
H	 -2.930896	 -0.390338	 1.644615
H	 -2.861967	 0.478748	 0.137306
C	 -5.411106	 0.710962	 0.283063
H	 -4.847259	 0.703375	 2.357459
H	 -4.456195	 2.181939	 1.526468
H	 -5.467273	 -0.368187	 0.171231
H	 -6.416738	 1.077069	 0.465559
H	 -5.076338	 1.123259	 -0.664726

	symmetry c1
}
set optking {
	frozen_dihedral = ("
		14 10 7 4,
		14 10 13 16,
		10 7 4 8,
		8 4 3 2,
		10 13 16 20,
		4 3 2 1
	")
}

ee = energy('scf')
oeprop('DIPOLE', 'QUADRUPOLE', 'MULLIKEN_CHARGES')
f=open( 'psi4out.xyz', 'w' )
f.write( "27  " )
f.write( str(ee) + "\n" )
f.write( MOL.save_string_xyz() )
f.close()
--------------------------------------------------------------------------

  Memory set to   2.000 GiB by Python script.

*** tstart() called on cx1-3-4-2.cx1.hpc.ic.ac.uk
*** at Tue Jul  5 18:18:27 2016


         ---------------------------------------------------------
                                   SCF
            by Justin Turney, Rob Parrish, and Andy Simmonett
                              RHF Reference
                        1 Threads,   2000 MiB Core
         ---------------------------------------------------------

  ==> Geometry <==

    Molecular point group: c1
    Full point group: C1

    Geometry (in Angstrom), charge = 0, multiplicity = 1:

       Center              X                  Y                   Z               Mass       
    ------------   -----------------  -----------------  -----------------  -----------------
           H         -0.093047841392    -1.164851155875     0.421700224431     1.007825032070
           O          0.822679158608    -1.157182155875     0.184091224431    15.994914619560
           C          0.950871158608    -0.959578155875    -1.201034775569    12.000000000000
           C          0.632704158608     0.466469844125    -1.636791775569    12.000000000000
           H          1.981112158608    -1.192755155875    -1.437480775569     1.007825032070
           H          0.326307158608    -1.666332155875    -1.746192775569     1.007825032070
           C          1.314929158608     1.543081844125    -0.789239775569    12.000000000000
           H          0.924155158608     0.582183844125    -2.677480775569     1.007825032070
           H         -0.446721841392     0.601607844125    -1.592699775569     1.007825032070
           C          0.770760158608     1.602788844125     0.640842224431    12.000000000000
           H          1.184783158608     2.509817844125    -1.267622775569     1.007825032070
           H          2.387562158608     1.351609844125    -0.755509775569     1.007825032070
           C          0.639580158608     0.243282844125     1.337172224431    12.000000000000
           H          1.406241158608     2.253522844125     1.238802224431     1.007825032070
           H         -0.209535841392     2.074202844125     0.618703224431     1.007825032070
           C         -0.414579841392    -0.689998155875     0.735332224431    12.000000000000
           H          1.606069158608    -0.254956155875     1.298806224431     1.007825032070
           H          0.422510158608     0.399611844125     2.392767224431     1.007825032070
           C         -1.845015841392    -0.190935155875     0.950336224431    12.000000000000
           H         -0.310690841392    -1.680512155875     1.176015224431     1.007825032070
           H         -0.241761841392    -0.811426155875    -0.331293775569     1.007825032070
           C         -2.790900841392    -0.579212155875    -0.185536775569    12.000000000000
           H         -2.227053841392    -0.586799155875     1.888859224431     1.007825032070
           H         -1.835989841392     0.891764844125     1.057868224431     1.007825032070
           H         -2.847067841392    -1.658361155875    -0.297368775569     1.007825032070
           H         -3.796532841392    -0.213105155875    -0.003040775569     1.007825032070
           H         -2.456132841392    -0.166915155875    -1.133325775569     1.007825032070

  Running in c1 symmetry.

  Rotational constants: A =      0.07136  B =      0.04325  C =      0.04013 [cm^-1]
  Rotational constants: A =   2139.37213  B =   1296.58251  C =   1202.98691 [MHz]
  Nuclear repulsion =  555.856956868324687

  Charge       = 0
  Multiplicity = 1
  Electrons    = 74
  Nalpha       = 37
  Nbeta        = 37

  ==> Algorithm <==

  SCF Algorithm Type is DF.
  DIIS enabled.
  MOM disabled.
  Fractional occupation disabled.
  Guess Type is CORE.
  Energy threshold   = 1.00e-06
  Density threshold  = 1.00e-06
  Integral threshold = 0.00e+00

  ==> Primary Basis <==

  Basis Set: 6-31G*
    Number of shells: 90
    Number of basis function: 171
    Number of Cartesian functions: 171
    Spherical Harmonics?: false
    Max angular momentum: 2

  ==> Pre-Iterations <==

   -------------------------------------------------------
    Irrep   Nso     Nmo     Nalpha   Nbeta   Ndocc  Nsocc
   -------------------------------------------------------
     A        171     171       0       0       0       0
   -------------------------------------------------------
    Total     171     171      37      37      37       0
   -------------------------------------------------------

 OEINTS: Overlap, kinetic, potential, dipole, and quadrupole integrals
         stored in file 35.

  ==> Integral Setup <==

  ==> DFJK: Density-Fitted J/K Matrices <==

    J tasked:                  Yes
    K tasked:                  Yes
    wK tasked:                  No
    OpenMP threads:              1
    Integrals threads:           1
    Memory (MB):              1430
    Algorithm:                Core
    Integral Cache:           NONE
    Schwarz Cutoff:          1E-12
    Fitting Condition:       1E-12

   => Auxiliary Basis Set <=

  Basis Set: 
    Number of shells: 378
    Number of basis function: 1179
    Number of Cartesian functions: 1179
    Spherical Harmonics?: false
    Max angular momentum: 3

  Minimum eigenvalue in the overlap matrix is 1.3353906139E-03.
  Using Symmetric Orthogonalization.
  SCF Guess: Core (One-Electron) Hamiltonian.

  ==> Iterations <==

                           Total Energy        Delta E     RMS |[F,P]|

   @DF-RHF iter   1:  -248.57247744507276   -2.48572e+02   7.00794e-02 
   @DF-RHF iter   2:  -143.54498571185218    1.05027e+02   6.87677e-02 DIIS
   @DF-RHF iter   3:  -306.90597294300471   -1.63361e+02   4.49957e-02 DIIS
   @DF-RHF iter   4:  -274.49570050912268    3.24103e+01   6.51629e-02 DIIS
   @DF-RHF iter   5:  -386.08315627070510   -1.11587e+02   8.02058e-03 DIIS
   @DF-RHF iter   6:  -386.88054766748735   -7.97391e-01   3.59993e-03 DIIS
   @DF-RHF iter   7:  -387.08595685121884   -2.05409e-01   9.49973e-04 DIIS
   @DF-RHF iter   8:  -387.10619163292540   -2.02348e-02   3.36247e-04 DIIS
   @DF-RHF iter   9:  -387.10838480761004   -2.19317e-03   1.49215e-04 DIIS
   @DF-RHF iter  10:  -387.10882203522181   -4.37228e-04   4.25436e-05 DIIS
   @DF-RHF iter  11:  -387.10889414572614   -7.21105e-05   1.80142e-05 DIIS
   @DF-RHF iter  12:  -387.10891069267507   -1.65469e-05   8.17573e-06 DIIS
   @DF-RHF iter  13:  -387.10891445921607   -3.76654e-06   3.38785e-06 DIIS
   @DF-RHF iter  14:  -387.10891537498242   -9.15766e-07   1.19250e-06 DIIS
   @DF-RHF iter  15:  -387.10891547170763   -9.67252e-08   4.11040e-07 DIIS

  ==> Post-Iterations <==

    Orbital Energies (a.u.)
    -----------------------

    Doubly Occupied:                                                      

       1A    -20.495525     2A    -11.278508     3A    -11.268062  
       4A    -11.227136     5A    -11.219000     6A    -11.210820  
       7A    -11.199117     8A    -11.193374     9A    -11.173839  
      10A     -1.641988    11A     -1.146318    12A     -1.081120  
      13A     -1.022698    14A     -1.002614    15A     -0.918472  
      16A     -0.876811    17A     -0.840040    18A     -0.782347  
      19A     -0.752146    20A     -0.671635    21A     -0.655632  
      22A     -0.637812    23A     -0.614388    24A     -0.597470  
      25A     -0.583964    26A     -0.564448    27A     -0.553988  
      28A     -0.524587    29A     -0.500593    30A     -0.487587  
      31A     -0.468530    32A     -0.466940    33A     -0.465125  
      34A     -0.449858    35A     -0.436840    36A     -0.351538  
      37A     -0.249728  

    Virtual:                                                              

      38A      0.198877    39A      0.236487    40A      0.246190  
      41A      0.254486    42A      0.282461    43A      0.291324  
      44A      0.297618    45A      0.306528    46A      0.317051  
      47A      0.325976    48A      0.332899    49A      0.337186  
      50A      0.349628    51A      0.362775    52A      0.369396  
      53A      0.375898    54A      0.384438    55A      0.409320  
      56A      0.415115    57A      0.428433    58A      0.450801  
      59A      0.471647    60A      0.474240    61A      0.499426  
      62A      0.511912    63A      0.585020    64A      0.695531  
      65A      0.716125    66A      0.724336    67A      0.736348  
      68A      0.753208    69A      0.766158    70A      0.797202  
      71A      0.805318    72A      0.847175    73A      0.863294  
      74A      0.889625    75A      0.902214    76A      0.923920  
      77A      0.947483    78A      0.956257    79A      0.977650  
      80A      0.990454    81A      1.022563    82A      1.048920  
      83A      1.083313    84A      1.096565    85A      1.107002  
      86A      1.112936    87A      1.138252    88A      1.147079  
      89A      1.152236    90A      1.162791    91A      1.171633  
      92A      1.186122    93A      1.191017    94A      1.209042  
      95A      1.218133    96A      1.234170    97A      1.249131  
      98A      1.254330    99A      1.272538   100A      1.275170  
     101A      1.280768   102A      1.292772   103A      1.351735  
     104A      1.388196   105A      1.424869   106A      1.441556  
     107A      1.500425   108A      1.565482   109A      1.607067  
     110A      1.627604   111A      1.677439   112A      1.725475  
     113A      1.743120   114A      1.775851   115A      1.821586  
     116A      1.835974   117A      1.889577   118A      1.917056  
     119A      1.951185   120A      1.999846   121A      2.035045  
     122A      2.082130   123A      2.093365   124A      2.113930  
     125A      2.153776   126A      2.207539   127A      2.236808  
     128A      2.247503   129A      2.269421   130A      2.293723  
     131A      2.316301   132A      2.339375   133A      2.385693  
     134A      2.391612   135A      2.420709   136A      2.428279  
     137A      2.505134   138A      2.538426   139A      2.579110  
     140A      2.594468   141A      2.637851   142A      2.651842  
     143A      2.693960   144A      2.700249   145A      2.716610  
     146A      2.734804   147A      2.750145   148A      2.767268  
     149A      2.786069   150A      2.796619   151A      2.817030  
     152A      2.875171   153A      2.912425   154A      2.981417  
     155A      3.016815   156A      3.035270   157A      3.060992  
     158A      3.110874   159A      3.162993   160A      3.273196  
     161A      3.544463   162A      4.545071   163A      4.592610  
     164A      4.669855   165A      4.736679   166A      4.801513  
     167A      4.873392   168A      4.964146   169A      4.990975  
     170A      5.061239   171A      5.190759  

    Final Occupation by Irrep:
              A 
    DOCC [    37 ]

  Energy converged.

  @DF-RHF Final Energy:  -387.10891547170763

   => Energetics <=

    Nuclear Repulsion Energy =            555.8569568683246871
    One-Electron Energy =               -1626.7105235712469948
    Two-Electron Energy =                 683.7446512312142204
    DFT Exchange-Correlation Energy =       0.0000000000000000
    Empirical Dispersion Energy =           0.0000000000000000
    PCM Polarization Energy =               0.0000000000000000
    EFP Energy =                            0.0000000000000000
    Total Energy =                       -387.1089154717080874

    Alert: EFP and PCM quantities not currently incorporated into SCF psivars.

Properties will be evaluated at   0.000000,   0.000000,   0.000000 Bohr
  ==> Properties <==


Properties computed using the SCF density matrix

  Nuclear Dipole Moment: (a.u.)
     X:    -3.9576      Y:     1.1834      Z:    -1.0758

  Electronic Dipole Moment: (a.u.)
     X:     4.2213      Y:    -1.3223      Z:     0.4343

  Dipole Moment: (a.u.)
     X:     0.2637      Y:    -0.1389      Z:    -0.6415     Total:     0.7074

  Dipole Moment: (Debye)
     X:     0.6704      Y:    -0.3530      Z:    -1.6305     Total:     1.7979


  Saving occupied orbitals to File 180.

*** tstop() called on cx1-3-4-2.cx1.hpc.ic.ac.uk at Tue Jul  5 18:18:59 2016
Module time:
	user time   =      31.20 seconds =       0.52 minutes
	system time =       0.31 seconds =       0.01 minutes
	total time  =         32 seconds =       0.53 minutes
Total time:
	user time   =      31.20 seconds =       0.52 minutes
	system time =       0.31 seconds =       0.01 minutes
	total time  =         32 seconds =       0.53 minutes


Properties will be evaluated at   0.000000,   0.000000,   0.000000 Bohr

Properties computed using the  density matrix

  Nuclear Dipole Moment: (a.u.)
     X:    -3.9576      Y:     1.1834      Z:    -1.0758

  Electronic Dipole Moment: (a.u.)
     X:     4.2213      Y:    -1.3223      Z:     0.4343

  Dipole Moment: (a.u.)
     X:     0.2637      Y:    -0.1389      Z:    -0.6415     Total:     0.7074

  Dipole Moment: (Debye)
     X:     0.6704      Y:    -0.3530      Z:    -1.6305     Total:     1.7979

  Quadrupole Moment: (Debye Ang)
    XX:   -63.0353     YY:   -59.5627     ZZ:   -60.1267
    XY:     0.9052     XZ:    -1.4484     YZ:    -0.3042

  Traceless Quadrupole Moment: (Debye Ang)
    XX:    -2.1270     YY:     1.3455     ZZ:     0.7815
    XY:     0.9052     XZ:    -1.4484     YZ:    -0.3042

  Mulliken Charges: (a.u.)
   Center  Symbol    Alpha    Beta     Spin     Total
       1     H     0.42540  0.42540  0.00000  0.14920
       2     O     4.28199  4.28199  0.00000 -0.56397
       3     C     3.07395  3.07395  0.00000 -0.14790
       4     C     3.19205  3.19205  0.00000 -0.38411
       5     H     0.38819  0.38819  0.00000  0.22361
       6     H     0.40832  0.40832  0.00000  0.18335
       7     C     3.15007  3.15007  0.00000 -0.30014
       8     H     0.41152  0.41152  0.00000  0.17696
       9     H     0.40325  0.40325  0.00000  0.19351
      10     C     3.15103  3.15103  0.00000 -0.30205
      11     H     0.41584  0.41584  0.00000  0.16831
      12     H     0.42282  0.42282  0.00000  0.15435
      13     C     3.16206  3.16206  0.00000 -0.32413
      14     H     0.41813  0.41813  0.00000  0.16373
      15     H     0.42153  0.42153  0.00000  0.15693
      16     C     3.09826  3.09826  0.00000 -0.19651
      17     H     0.39193  0.39193  0.00000  0.21614
      18     H     0.43815  0.43815  0.00000  0.12369
      19     C     3.16935  3.16935  0.00000 -0.33869
      20     H     0.37144  0.37144  0.00000  0.25713
      21     H     0.42074  0.42074  0.00000  0.15852
      22     C     3.24329  3.24329  0.00000 -0.48658
      23     H     0.43691  0.43691  0.00000  0.12618
      24     H     0.42720  0.42720  0.00000  0.14561
      25     H     0.42977  0.42977  0.00000  0.14046
      26     H     0.41841  0.41841  0.00000  0.16318
      27     H     0.42838  0.42838  0.00000  0.14323

   Total alpha = 37.00000, Total beta = 37.00000, Total charge = -0.00000


*** PSI4 exiting successfully. Buy a developer a beer!
