    -----------------------------------------------------------------------
          Psi4: An Open-Source Ab Initio Electronic Structure Package
                              Psi4 (no tag) Driver

                          Git: Rev {detached?}  

    J. M. Turney, A. C. Simmonett, R. M. Parrish, E. G. Hohenstein,
    F. A. Evangelista, J. T. Fermann, B. J. Mintz, L. A. Burns, J. J. Wilke,
    M. L. Abrams, N. J. Russ, M. L. Leininger, C. L. Janssen, E. T. Seidl,
    W. D. Allen, H. F. Schaefer, R. A. King, E. F. Valeev, C. D. Sherrill,
    and T. D. Crawford, WIREs Comput. Mol. Sci. 2, 556-565 (2012)
    (doi: 10.1002/wcms.93)

                         Additional Contributions by
    A. E. DePrince, M. Saitow, U. Bozkaya, A. Yu. Sokolov
    -----------------------------------------------------------------------


    Psi4 started on: Tue Jul  5 16:44:17 2016

    Process ID:  27812
    PSI4DATADIR: /export131/home/mjharvey/miniconda3/share
    Memory level set to 256.000 MB

  ==> Input File <==

--------------------------------------------------------------------------
set {
	reference rhf
	basis 6-31G*
}


set_num_threads( 1 )
memory 2 gb

molecule MOL {
0 1

H	 2.603957	 -0.947225	 -1.850757
C	 1.884017	 -1.171124	 -1.071987
C	 1.322923	 0.120767	 -0.479465
H	 1.099185	 -1.779120	 -1.511023
H	 2.387640	 -1.766185	 -0.316435
C	 0.306652	 -0.176050	 0.621399
H	 0.839891	 0.707398	 -1.254043
H	 2.122531	 0.722897	 -0.064340
N	 -1.068537	 -0.011044	 0.085269
H	 0.372515	 -1.192590	 0.973735
H	 0.391664	 0.520566	 1.441230
O	 -1.656956	 -0.997225	 -0.235017
O	 -1.478635	 1.104830	 -0.018026

	symmetry c1
}
set optking {
	frozen_dihedral = ("
		12 9 6 3
	")
}

ee = energy('scf')
oeprop('DIPOLE', 'QUADRUPOLE', 'MULLIKEN_CHARGES')
f=open( 'psi4out.xyz', 'w' )
f.write( "13  " )
f.write( str(ee) + "\n" )
f.write( MOL.save_string_xyz() )
f.close()
--------------------------------------------------------------------------

  Memory set to   2.000 GiB by Python script.

*** tstart() called on cx1-3-15-4.cx1.hpc.ic.ac.uk
*** at Tue Jul  5 16:44:18 2016


         ---------------------------------------------------------
                                   SCF
            by Justin Turney, Rob Parrish, and Andy Simmonett
                              RHF Reference
                        1 Threads,   2000 MiB Core
         ---------------------------------------------------------

  ==> Geometry <==

    Molecular point group: c1
    Full point group: C1

    Geometry (in Angstrom), charge = 0, multiplicity = 1:

       Center              X                  Y                   Z               Mass       
    ------------   -----------------  -----------------  -----------------  -----------------
           H          2.750608826331    -0.757283149196    -1.664162091412     1.007825032070
           C          2.030668826331    -0.981182149196    -0.885392091412    12.000000000000
           C          1.469574826331     0.310708850804    -0.292870091412    12.000000000000
           H          1.245836826331    -1.589178149196    -1.324428091412     1.007825032070
           H          2.534291826331    -1.576243149196    -0.129840091412     1.007825032070
           C          0.453303826331     0.013891850804     0.807993908588    12.000000000000
           H          0.986542826331     0.897339850804    -1.067448091412     1.007825032070
           H          2.269182826331     0.912838850804     0.122254908588     1.007825032070
           N         -0.921885173669     0.178897850804     0.271863908588    14.003074004780
           H          0.519166826331    -1.002648149196     1.160329908588     1.007825032070
           H          0.538315826331     0.710507850804     1.627824908588     1.007825032070
           O         -1.510304173669    -0.807283149196    -0.048422091412    15.994914619560
           O         -1.331983173669     1.294771850804     0.168568908588    15.994914619560

  Running in c1 symmetry.

  Rotational constants: A =      0.23695  B =      0.07879  C =      0.06839 [cm^-1]
  Rotational constants: A =   7103.53345  B =   2362.08280  C =   2050.39168 [MHz]
  Nuclear repulsion =  250.595118282896237

  Charge       = 0
  Multiplicity = 1
  Electrons    = 48
  Nalpha       = 24
  Nbeta        = 24

  ==> Algorithm <==

  SCF Algorithm Type is DF.
  DIIS enabled.
  MOM disabled.
  Fractional occupation disabled.
  Guess Type is CORE.
  Energy threshold   = 1.00e-06
  Density threshold  = 1.00e-06
  Integral threshold = 0.00e+00

  ==> Primary Basis <==

  Basis Set: 6-31G*
    Number of shells: 50
    Number of basis function: 104
    Number of Cartesian functions: 104
    Spherical Harmonics?: false
    Max angular momentum: 2

  ==> Pre-Iterations <==

   -------------------------------------------------------
    Irrep   Nso     Nmo     Nalpha   Nbeta   Ndocc  Nsocc
   -------------------------------------------------------
     A        104     104       0       0       0       0
   -------------------------------------------------------
    Total     104     104      24      24      24       0
   -------------------------------------------------------

 OEINTS: Overlap, kinetic, potential, dipole, and quadrupole integrals
         stored in file 35.

  ==> Integral Setup <==

  ==> DFJK: Density-Fitted J/K Matrices <==

    J tasked:                  Yes
    K tasked:                  Yes
    wK tasked:                  No
    OpenMP threads:              1
    Integrals threads:           1
    Memory (MB):              1430
    Algorithm:                Core
    Integral Cache:           NONE
    Schwarz Cutoff:          1E-12
    Fitting Condition:       1E-12

   => Auxiliary Basis Set <=

  Basis Set: 
    Number of shells: 207
    Number of basis function: 661
    Number of Cartesian functions: 661
    Spherical Harmonics?: false
    Max angular momentum: 3

  Minimum eigenvalue in the overlap matrix is 3.1778921107E-03.
  Using Symmetric Orthogonalization.
  SCF Guess: Core (One-Electron) Hamiltonian.

  ==> Iterations <==

                           Total Energy        Delta E     RMS |[F,P]|

   @DF-RHF iter   1:  -245.75160201746064   -2.45752e+02   7.99527e-02 
   @DF-RHF iter   2:  -157.16742921682851    8.85842e+01   9.67802e-02 DIIS
   @DF-RHF iter   3:  -304.01157922491461   -1.46844e+02   3.16922e-02 DIIS
   @DF-RHF iter   4:  -254.83377099066217    4.91778e+01   7.90162e-02 DIIS
   @DF-RHF iter   5:  -283.79305923016307   -2.89593e+01   6.10165e-02 DIIS
   @DF-RHF iter   6:  -298.01896873334817   -1.42259e+01   4.74494e-02 DIIS
   @DF-RHF iter   7:  -302.92140438332672   -4.90244e+00   4.35148e-02 DIIS
   @DF-RHF iter   8:  -306.04922380999506   -3.12782e+00   3.92656e-02 DIIS
   @DF-RHF iter   9:  -317.26475523862052   -1.12155e+01   2.37626e-02 DIIS
   @DF-RHF iter  10:  -321.16348718536096   -3.89873e+00   9.85631e-03 DIIS
   @DF-RHF iter  11:  -321.55070600954014   -3.87219e-01   5.88541e-03 DIIS
   @DF-RHF iter  12:  -321.70450531658594   -1.53799e-01   1.73782e-03 DIIS
   @DF-RHF iter  13:  -321.72866650281833   -2.41612e-02   4.94955e-04 DIIS
   @DF-RHF iter  14:  -321.73029946414613   -1.63296e-03   2.59224e-04 DIIS
   @DF-RHF iter  15:  -321.73080597144246   -5.06507e-04   7.63541e-05 DIIS
   @DF-RHF iter  16:  -321.73088029661926   -7.43252e-05   2.22328e-05 DIIS
   @DF-RHF iter  17:  -321.73088974172106   -9.44510e-06   7.89759e-06 DIIS
   @DF-RHF iter  18:  -321.73089142633921   -1.68462e-06   3.70622e-06 DIIS
   @DF-RHF iter  19:  -321.73089185591448   -4.29575e-07   1.55948e-06 DIIS
   @DF-RHF iter  20:  -321.73089192693271   -7.10182e-08   5.06753e-07 DIIS

  ==> Post-Iterations <==

    Orbital Energies (a.u.)
    -----------------------

    Doubly Occupied:                                                      

       1A    -20.602817     2A    -20.599309     3A    -15.847294  
       4A    -11.298278     5A    -11.256341     6A    -11.233229  
       7A     -1.631104     8A     -1.416616     9A     -1.135783  
      10A     -1.024152    11A     -0.887384    12A     -0.830223  
      13A     -0.761346    14A     -0.734869    15A     -0.723626  
      16A     -0.648565    17A     -0.625591    18A     -0.594392  
      19A     -0.529605    20A     -0.524890    21A     -0.514712  
      22A     -0.482052    23A     -0.473564    24A     -0.448657  

    Virtual:                                                              

      25A      0.119273    26A      0.222901    27A      0.248059  
      28A      0.260340    29A      0.292101    30A      0.295553  
      31A      0.310960    32A      0.315856    33A      0.362840  
      34A      0.377195    35A      0.425544    36A      0.537566  
      37A      0.601070    38A      0.684226    39A      0.698730  
      40A      0.729034    41A      0.749710    42A      0.787018  
      43A      0.850246    44A      0.877827    45A      0.913233  
      46A      0.931814    47A      0.946980    48A      1.052421  
      49A      1.060231    50A      1.077661    51A      1.096608  
      52A      1.103231    53A      1.121076    54A      1.157348  
      55A      1.164244    56A      1.188249    57A      1.194690  
      58A      1.216683    59A      1.235751    60A      1.273778  
      61A      1.285538    62A      1.312676    63A      1.337571  
      64A      1.402357    65A      1.474788    66A      1.591222  
      67A      1.687689    68A      1.735938    69A      1.759600  
      70A      1.888060    71A      1.912990    72A      1.977078  
      73A      2.081489    74A      2.101028    75A      2.117488  
      76A      2.130942    77A      2.181456    78A      2.195455  
      79A      2.256130    80A      2.272067    81A      2.322462  
      82A      2.360861    83A      2.416668    84A      2.452987  
      85A      2.510375    86A      2.596989    87A      2.636426  
      88A      2.694628    89A      2.699435    90A      2.803619  
      91A      2.891217    92A      2.908451    93A      3.028038  
      94A      3.081197    95A      3.232043    96A      3.243933  
      97A      3.278504    98A      3.488640    99A      4.083814  
     100A      4.255261   101A      4.274183   102A      4.575686  
     103A      4.774041   104A      4.927171  

    Final Occupation by Irrep:
              A 
    DOCC [    24 ]

  Energy converged.

  @DF-RHF Final Energy:  -321.73089192693271

   => Energetics <=

    Nuclear Repulsion Energy =            250.5951182828962374
    One-Electron Energy =                -935.0032388076333518
    Two-Electron Energy =                 362.6772285978039463
    DFT Exchange-Correlation Energy =       0.0000000000000000
    Empirical Dispersion Energy =           0.0000000000000000
    PCM Polarization Energy =               0.0000000000000000
    EFP Energy =                            0.0000000000000000
    Total Energy =                       -321.7308919269331682

    Alert: EFP and PCM quantities not currently incorporated into SCF psivars.

Properties will be evaluated at   0.000000,   0.000000,   0.000000 Bohr
  ==> Properties <==


Properties computed using the SCF density matrix

  Nuclear Dipole Moment: (a.u.)
     X:    10.1549      Y:    -2.2525      Z:    -1.1959

  Electronic Dipole Moment: (a.u.)
     X:    -8.5670      Y:     2.0710      Z:     1.6344

  Dipole Moment: (a.u.)
     X:     1.5879      Y:    -0.1815      Z:     0.4385     Total:     1.6573

  Dipole Moment: (Debye)
     X:     4.0360      Y:    -0.4613      Z:     1.1146     Total:     4.2124


  Saving occupied orbitals to File 180.

*** tstop() called on cx1-3-15-4.cx1.hpc.ic.ac.uk at Tue Jul  5 16:44:25 2016
Module time:
	user time   =       6.84 seconds =       0.11 minutes
	system time =       0.05 seconds =       0.00 minutes
	total time  =          7 seconds =       0.12 minutes
Total time:
	user time   =       6.84 seconds =       0.11 minutes
	system time =       0.05 seconds =       0.00 minutes
	total time  =          7 seconds =       0.12 minutes


Properties will be evaluated at   0.000000,   0.000000,   0.000000 Bohr

Properties computed using the  density matrix

  Nuclear Dipole Moment: (a.u.)
     X:    10.1549      Y:    -2.2525      Z:    -1.1959

  Electronic Dipole Moment: (a.u.)
     X:    -8.5670      Y:     2.0710      Z:     1.6344

  Dipole Moment: (a.u.)
     X:     1.5879      Y:    -0.1815      Z:     0.4385     Total:     1.6573

  Dipole Moment: (Debye)
     X:     4.0360      Y:    -0.4613      Z:     1.1146     Total:     4.2124

  Quadrupole Moment: (Debye Ang)
    XX:   -40.0106     YY:   -39.9489     ZZ:   -33.5699
    XY:     0.7927     XZ:    -0.3306     YZ:    -0.4183

  Traceless Quadrupole Moment: (Debye Ang)
    XX:    -2.1675     YY:    -2.1057     ZZ:     4.2732
    XY:     0.7927     XZ:    -0.3306     YZ:    -0.4183

  Mulliken Charges: (a.u.)
   Center  Symbol    Alpha    Beta     Spin     Total
       1     H     0.41121  0.41121  0.00000  0.17757
       2     C     3.24819  3.24819  0.00000 -0.49637
       3     C     3.17421  3.17421  0.00000 -0.34841
       4     H     0.40652  0.40652  0.00000  0.18696
       5     H     0.41741  0.41741  0.00000  0.16518
       6     C     3.08875  3.08875  0.00000 -0.17751
       7     H     0.39365  0.39365  0.00000  0.21271
       8     H     0.40462  0.40462  0.00000  0.19075
       9     N     3.22553  3.22553  0.00000  0.54895
      10     H     0.38558  0.38558  0.00000  0.22884
      11     H     0.38572  0.38572  0.00000  0.22857
      12     O     4.22829  4.22829  0.00000 -0.45659
      13     O     4.23033  4.23033  0.00000 -0.46066

   Total alpha = 24.00000, Total beta = 24.00000, Total charge = -0.00000


*** PSI4 exiting successfully. Buy a developer a beer!
