    -----------------------------------------------------------------------
          Psi4: An Open-Source Ab Initio Electronic Structure Package
                              Psi4 (no tag) Driver

                          Git: Rev {detached?}  

    J. M. Turney, A. C. Simmonett, R. M. Parrish, E. G. Hohenstein,
    F. A. Evangelista, J. T. Fermann, B. J. Mintz, L. A. Burns, J. J. Wilke,
    M. L. Abrams, N. J. Russ, M. L. Leininger, C. L. Janssen, E. T. Seidl,
    W. D. Allen, H. F. Schaefer, R. A. King, E. F. Valeev, C. D. Sherrill,
    and T. D. Crawford, WIREs Comput. Mol. Sci. 2, 556-565 (2012)
    (doi: 10.1002/wcms.93)

                         Additional Contributions by
    A. E. DePrince, M. Saitow, U. Bozkaya, A. Yu. Sokolov
    -----------------------------------------------------------------------


    Psi4 started on: Tue Jul  5 17:11:30 2016

    Process ID:   4274
    PSI4DATADIR: /export131/home/mjharvey/miniconda3/share
    Memory level set to 256.000 MB

  ==> Input File <==

--------------------------------------------------------------------------
set {
	reference rhf
	basis 6-31G*
}


set_num_threads( 1 )
memory 2 gb

molecule MOL {
0 1

O	 -0.225430	 1.516131	 1.952018
C	 -0.833093	 0.610524	 1.479901
C	 -1.911769	 -0.165964	 2.185500
O	 -0.632575	 0.154573	 0.251549
H	 -1.635529	 -1.212870	 2.236748
H	 -2.050890	 0.229055	 3.180709
H	 -2.837545	 -0.097804	 1.625991
C	 0.160891	 -1.019931	 0.106212
C	 1.589627	 -0.672828	 0.480843
H	 0.089836	 -1.367806	 -0.916050
H	 -0.238459	 -1.792301	 0.749618
C	 1.722001	 0.048570	 1.823400
H	 1.992087	 -0.045559	 -0.311932
H	 2.181606	 -1.584278	 0.489726
C	 0.938030	 -0.641001	 2.939143
H	 2.773202	 0.101679	 2.099546
H	 1.378146	 1.072119	 1.716299
H	 1.047027	 -0.110418	 3.879693
H	 1.283598	 -1.659565	 3.092076
H	 -0.121838	 -0.683666	 2.704755

	symmetry c1
}
set optking {
	frozen_dihedral = ("
		16 12 9 8,
		2 4 8 10,
		12 9 8 10
	")
}

ee = energy('scf')
oeprop('DIPOLE', 'QUADRUPOLE', 'MULLIKEN_CHARGES')
f=open( 'psi4out.xyz', 'w' )
f.write( "20  " )
f.write( str(ee) + "\n" )
f.write( MOL.save_string_xyz() )
f.close()
--------------------------------------------------------------------------

  Memory set to   2.000 GiB by Python script.

*** tstart() called on cx1-1-1-1.cx1.hpc.ic.ac.uk
*** at Tue Jul  5 17:11:31 2016


         ---------------------------------------------------------
                                   SCF
            by Justin Turney, Rob Parrish, and Andy Simmonett
                              RHF Reference
                        1 Threads,   2000 MiB Core
         ---------------------------------------------------------

  ==> Geometry <==

    Molecular point group: c1
    Full point group: C1

    Geometry (in Angstrom), charge = 0, multiplicity = 1:

       Center              X                  Y                   Z               Mass       
    ------------   -----------------  -----------------  -----------------  -----------------
           O         -0.312918424514     1.538288852937     0.538091897782    15.994914619560
           C         -0.920581424514     0.632681852937     0.065974897782    12.000000000000
           C         -1.999257424514    -0.143806147063     0.771573897782    12.000000000000
           O         -0.720063424514     0.176730852937    -1.162377102218    15.994914619560
           H         -1.723017424514    -1.190712147063     0.822821897782     1.007825032070
           H         -2.138378424514     0.251212852937     1.766782897782     1.007825032070
           H         -2.925033424514    -0.075646147063     0.212064897782     1.007825032070
           C          0.073402575486    -0.997773147063    -1.307714102218    12.000000000000
           C          1.502138575486    -0.650670147063    -0.933083102218    12.000000000000
           H          0.002347575486    -1.345648147063    -2.329976102218     1.007825032070
           H         -0.325947424514    -1.770143147063    -0.664308102218     1.007825032070
           C          1.634512575486     0.070727852937     0.409473897782    12.000000000000
           H          1.904598575486    -0.023401147063    -1.725858102218     1.007825032070
           H          2.094117575486    -1.562120147063    -0.924200102218     1.007825032070
           C          0.850541575486    -0.618843147063     1.525216897782    12.000000000000
           H          2.685713575486     0.123836852937     0.685619897782     1.007825032070
           H          1.290657575486     1.094276852937     0.302372897782     1.007825032070
           H          0.959538575486    -0.088260147063     2.465766897782     1.007825032070
           H          1.196109575486    -1.637407147063     1.678149897782     1.007825032070
           H         -0.209326424514    -0.661508147063     1.290828897782     1.007825032070

  Running in c1 symmetry.

  Rotational constants: A =      0.09134  B =      0.06846  C =      0.05479 [cm^-1]
  Rotational constants: A =   2738.19900  B =   2052.52767  C =   1642.49287 [MHz]
  Nuclear repulsion =  430.312135553460280

  Charge       = 0
  Multiplicity = 1
  Electrons    = 64
  Nalpha       = 32
  Nbeta        = 32

  ==> Algorithm <==

  SCF Algorithm Type is DF.
  DIIS enabled.
  MOM disabled.
  Fractional occupation disabled.
  Guess Type is CORE.
  Energy threshold   = 1.00e-06
  Density threshold  = 1.00e-06
  Integral threshold = 0.00e+00

  ==> Primary Basis <==

  Basis Set: 6-31G*
    Number of shells: 72
    Number of basis function: 144
    Number of Cartesian functions: 144
    Spherical Harmonics?: false
    Max angular momentum: 2

  ==> Pre-Iterations <==

   -------------------------------------------------------
    Irrep   Nso     Nmo     Nalpha   Nbeta   Ndocc  Nsocc
   -------------------------------------------------------
     A        144     144       0       0       0       0
   -------------------------------------------------------
    Total     144     144      32      32      32       0
   -------------------------------------------------------

 OEINTS: Overlap, kinetic, potential, dipole, and quadrupole integrals
         stored in file 35.

  ==> Integral Setup <==

  ==> DFJK: Density-Fitted J/K Matrices <==

    J tasked:                  Yes
    K tasked:                  Yes
    wK tasked:                  No
    OpenMP threads:              1
    Integrals threads:           1
    Memory (MB):              1430
    Algorithm:                Core
    Integral Cache:           NONE
    Schwarz Cutoff:          1E-12
    Fitting Condition:       1E-12

   => Auxiliary Basis Set <=

  Basis Set: 
    Number of shells: 300
    Number of basis function: 948
    Number of Cartesian functions: 948
    Spherical Harmonics?: false
    Max angular momentum: 3

  Minimum eigenvalue in the overlap matrix is 3.2416600523E-03.
  Using Symmetric Orthogonalization.
  SCF Guess: Core (One-Electron) Hamiltonian.

  ==> Iterations <==

                           Total Energy        Delta E     RMS |[F,P]|

   @DF-RHF iter   1:  -284.83773255820040   -2.84838e+02   7.35550e-02 
   @DF-RHF iter   2:  -281.06208516648553    3.77565e+00   5.34304e-02 DIIS
   @DF-RHF iter   3:  -330.95601697946370   -4.98939e+01   5.35541e-02 DIIS
   @DF-RHF iter   4:  -376.41703900905429   -4.54610e+01   2.34873e-02 DIIS
   @DF-RHF iter   5:  -380.91811151684351   -4.50107e+00   1.38605e-02 DIIS
   @DF-RHF iter   6:  -383.68431424577716   -2.76620e+00   3.73099e-03 DIIS
   @DF-RHF iter   7:  -383.83343638531449   -1.49122e-01   1.24148e-03 DIIS
   @DF-RHF iter   8:  -383.84840508805985   -1.49687e-02   4.52908e-04 DIIS
   @DF-RHF iter   9:  -383.85130343524713   -2.89835e-03   1.34900e-04 DIIS
   @DF-RHF iter  10:  -383.85163228411409   -3.28849e-04   4.58990e-05 DIIS
   @DF-RHF iter  11:  -383.85168421762990   -5.19335e-05   2.24925e-05 DIIS
   @DF-RHF iter  12:  -383.85169455971311   -1.03421e-05   6.67879e-06 DIIS
   @DF-RHF iter  13:  -383.85169590396424   -1.34425e-06   3.81884e-06 DIIS
   @DF-RHF iter  14:  -383.85169629311190   -3.89148e-07   1.22833e-06 DIIS
   @DF-RHF iter  15:  -383.85169635272496   -5.96131e-08   4.11303e-07 DIIS

  ==> Post-Iterations <==

    Orbital Energies (a.u.)
    -----------------------

    Doubly Occupied:                                                      

       1A    -20.589981     2A    -20.552233     3A    -11.381998  
       4A    -11.297229     5A    -11.237015     6A    -11.219722  
       7A    -11.203007     8A    -11.195269     9A     -1.472460  
      10A     -1.376792    11A     -1.081632    12A     -1.035840  
      13A     -0.981036    14A     -0.904146    15A     -0.811683  
      16A     -0.758761    17A     -0.710386    18A     -0.699910  
      19A     -0.676914    20A     -0.643720    21A     -0.615055  
      22A     -0.591104    23A     -0.576484    24A     -0.558788  
      25A     -0.550427    26A     -0.536004    27A     -0.487767  
      28A     -0.487176    29A     -0.471426    30A     -0.461500  
      31A     -0.441148    32A     -0.409702  

    Virtual:                                                              

      33A      0.165279    34A      0.224249    35A      0.257354  
      36A      0.279291    37A      0.287909    38A      0.300422  
      39A      0.307757    40A      0.312780    41A      0.326950  
      42A      0.348927    43A      0.350862    44A      0.374002  
      45A      0.379654    46A      0.390988    47A      0.409443  
      48A      0.438098    49A      0.442494    50A      0.480588  
      51A      0.546309    52A      0.576692    53A      0.701418  
      54A      0.721561    55A      0.736849    56A      0.762314  
      57A      0.776633    58A      0.794600    59A      0.810307  
      60A      0.845335    61A      0.853094    62A      0.882102  
      63A      0.903691    64A      0.948550    65A      0.955818  
      66A      0.984503    67A      1.000263    68A      1.050934  
      69A      1.079322    70A      1.100775    71A      1.107785  
      72A      1.135501    73A      1.149851    74A      1.161290  
      75A      1.162043    76A      1.190320    77A      1.196130  
      78A      1.214906    79A      1.217935    80A      1.230935  
      81A      1.254068    82A      1.254442    83A      1.275498  
      84A      1.331807    85A      1.357497    86A      1.405298  
      87A      1.438871    88A      1.451453    89A      1.498363  
      90A      1.562574    91A      1.577675    92A      1.658056  
      93A      1.717521    94A      1.729166    95A      1.791819  
      96A      1.832455    97A      1.871313    98A      1.892585  
      99A      1.950883   100A      2.002531   101A      2.019942  
     102A      2.066427   103A      2.106622   104A      2.142265  
     105A      2.164584   106A      2.177125   107A      2.199614  
     108A      2.238481   109A      2.278907   110A      2.302629  
     111A      2.337285   112A      2.348160   113A      2.375685  
     114A      2.412171   115A      2.462351   116A      2.502883  
     117A      2.509694   118A      2.593675   119A      2.626465  
     120A      2.639371   121A      2.667353   122A      2.703250  
     123A      2.714342   124A      2.764610   125A      2.798238  
     126A      2.813839   127A      2.829178   128A      2.939578  
     129A      3.013504   130A      3.058333   131A      3.095440  
     132A      3.167355   133A      3.266930   134A      3.308551  
     135A      3.396030   136A      3.502244   137A      4.498979  
     138A      4.600045   139A      4.659191   140A      4.690786  
     141A      4.815859   142A      4.889748   143A      4.934461  
     144A      5.033169  

    Final Occupation by Irrep:
              A 
    DOCC [    32 ]

  Energy converged.

  @DF-RHF Final Energy:  -383.85169635272496

   => Energetics <=

    Nuclear Repulsion Energy =            430.3121355534602799
    One-Electron Energy =               -1376.2952169320064968
    Two-Electron Energy =                 562.1313850258204639
    DFT Exchange-Correlation Energy =       0.0000000000000000
    Empirical Dispersion Energy =           0.0000000000000000
    PCM Polarization Energy =               0.0000000000000000
    EFP Energy =                            0.0000000000000000
    Total Energy =                       -383.8516963527257531

    Alert: EFP and PCM quantities not currently incorporated into SCF psivars.

Properties will be evaluated at   0.000000,   0.000000,   0.000000 Bohr
  ==> Properties <==


Properties computed using the SCF density matrix

  Nuclear Dipole Moment: (a.u.)
     X:     2.6306      Y:    -6.4467      Z:     3.3532

  Electronic Dipole Moment: (a.u.)
     X:    -2.9522      Y:     5.2553      Z:    -3.4770

  Dipole Moment: (a.u.)
     X:    -0.3216      Y:    -1.1914      Z:    -0.1237     Total:     1.2402

  Dipole Moment: (Debye)
     X:    -0.8174      Y:    -3.0283      Z:    -0.3145     Total:     3.1524


  Saving occupied orbitals to File 180.

*** tstop() called on cx1-1-1-1.cx1.hpc.ic.ac.uk at Tue Jul  5 17:11:47 2016
Module time:
	user time   =      15.59 seconds =       0.26 minutes
	system time =       0.16 seconds =       0.00 minutes
	total time  =         16 seconds =       0.27 minutes
Total time:
	user time   =      15.59 seconds =       0.26 minutes
	system time =       0.16 seconds =       0.00 minutes
	total time  =         16 seconds =       0.27 minutes


Properties will be evaluated at   0.000000,   0.000000,   0.000000 Bohr

Properties computed using the  density matrix

  Nuclear Dipole Moment: (a.u.)
     X:     2.6306      Y:    -6.4467      Z:     3.3532

  Electronic Dipole Moment: (a.u.)
     X:    -2.9522      Y:     5.2553      Z:    -3.4770

  Dipole Moment: (a.u.)
     X:    -0.3216      Y:    -1.1914      Z:    -0.1237     Total:     1.2402

  Dipole Moment: (Debye)
     X:    -0.8174      Y:    -3.0283      Z:    -0.3145     Total:     3.1524

  Quadrupole Moment: (Debye Ang)
    XX:   -47.7235     YY:   -53.0579     ZZ:   -50.5278
    XY:     0.4582     XZ:    -2.0457     YZ:     0.6891

  Traceless Quadrupole Moment: (Debye Ang)
    XX:     2.7129     YY:    -2.6215     ZZ:    -0.0914
    XY:     0.4582     XZ:    -2.0457     YZ:     0.6891

  Mulliken Charges: (a.u.)
   Center  Symbol    Alpha    Beta     Spin     Total
       1     O     4.26258  4.26258  0.00000 -0.52515
       2     C     2.63751  2.63751  0.00000  0.72497
       3     C     3.28639  3.28639  0.00000 -0.57279
       4     O     4.30902  4.30902  0.00000 -0.61803
       5     H     0.40040  0.40040  0.00000  0.19919
       6     H     0.39385  0.39385  0.00000  0.21229
       7     H     0.39451  0.39451  0.00000  0.21099
       8     C     3.01800  3.01800  0.00000 -0.03600
       9     C     3.15672  3.15672  0.00000 -0.31345
      10     H     0.40037  0.40037  0.00000  0.19925
      11     H     0.41930  0.41930  0.00000  0.16140
      12     C     3.19645  3.19645  0.00000 -0.39289
      13     H     0.41171  0.41171  0.00000  0.17658
      14     H     0.42249  0.42249  0.00000  0.15502
      15     C     3.22944  3.22944  0.00000 -0.45888
      16     H     0.42036  0.42036  0.00000  0.15927
      17     H     0.36101  0.36101  0.00000  0.27798
      18     H     0.41054  0.41054  0.00000  0.17891
      19     H     0.42715  0.42715  0.00000  0.14570
      20     H     0.44218  0.44218  0.00000  0.11564

   Total alpha = 32.00000, Total beta = 32.00000, Total charge = -0.00000


*** PSI4 exiting successfully. Buy a developer a beer!
