    -----------------------------------------------------------------------
          Psi4: An Open-Source Ab Initio Electronic Structure Package
                              Psi4 (no tag) Driver

                          Git: Rev {detached?}  

    J. M. Turney, A. C. Simmonett, R. M. Parrish, E. G. Hohenstein,
    F. A. Evangelista, J. T. Fermann, B. J. Mintz, L. A. Burns, J. J. Wilke,
    M. L. Abrams, N. J. Russ, M. L. Leininger, C. L. Janssen, E. T. Seidl,
    W. D. Allen, H. F. Schaefer, R. A. King, E. F. Valeev, C. D. Sherrill,
    and T. D. Crawford, WIREs Comput. Mol. Sci. 2, 556-565 (2012)
    (doi: 10.1002/wcms.93)

                         Additional Contributions by
    A. E. DePrince, M. Saitow, U. Bozkaya, A. Yu. Sokolov
    -----------------------------------------------------------------------


    Psi4 started on: Tue Jul  5 17:07:14 2016

    Process ID:  17717
    PSI4DATADIR: /export131/home/mjharvey/miniconda3/share
    Memory level set to 256.000 MB

  ==> Input File <==

--------------------------------------------------------------------------
set {
	reference rhf
	basis 6-31G*
}


set_num_threads( 1 )
memory 2 gb

molecule MOL {
0 1

H	 5.268524	 0.192471	 1.070992
C	 4.673736	 -0.214914	 0.259335
C	 3.185378	 -0.203514	 0.605509
H	 4.871837	 0.380453	 -0.627026
H	 5.025590	 -1.224632	 0.065769
C	 2.317601	 -0.778379	 -0.516234
H	 2.874655	 0.814325	 0.817774
H	 3.023650	 -0.778480	 1.515976
C	 3.063214	 -0.963506	 -1.837997
H	 1.907946	 -1.733200	 -0.206163
H	 1.474637	 -0.113256	 -0.689624
C	 4.081867	 -2.093782	 -1.830033
H	 2.353270	 -1.191813	 -2.631486
H	 3.554374	 -0.041048	 -2.139674
C	 5.127774	 -2.104286	 -2.931251
O	 4.054943	 -2.954547	 -1.002529
C	 4.538446	 -2.251516	 -4.341988
H	 5.802285	 -2.925249	 -2.719664
H	 5.699240	 -1.179692	 -2.874354
C	 5.622460	 -2.356808	 -5.416437
H	 3.910111	 -3.138968	 -4.377188
H	 3.894860	 -1.405300	 -4.568231
C	 5.048427	 -2.503752	 -6.824910
H	 6.264052	 -3.206502	 -5.196345
H	 6.257151	 -1.474327	 -5.374139
H	 4.434667	 -3.396103	 -6.906966
H	 4.428957	 -1.650971	 -7.087843
H	 5.839711	 -2.577716	 -7.564016

	symmetry c1
}
set optking {
	frozen_dihedral = ("
		12 15 17 21,
		16 12 15 17
	")
}

ee = energy('scf')
oeprop('DIPOLE', 'QUADRUPOLE', 'MULLIKEN_CHARGES')
f=open( 'psi4out.xyz', 'w' )
f.write( "28  " )
f.write( str(ee) + "\n" )
f.write( MOL.save_string_xyz() )
f.close()
--------------------------------------------------------------------------

  Memory set to   2.000 GiB by Python script.

*** tstart() called on cx1-3-4-4.cx1.hpc.ic.ac.uk
*** at Tue Jul  5 17:07:14 2016


         ---------------------------------------------------------
                                   SCF
            by Justin Turney, Rob Parrish, and Andy Simmonett
                              RHF Reference
                        1 Threads,   2000 MiB Core
         ---------------------------------------------------------

  ==> Geometry <==

    Molecular point group: c1
    Full point group: C1

    Geometry (in Angstrom), charge = 0, multiplicity = 1:

       Center              X                  Y                   Z               Mass       
    ------------   -----------------  -----------------  -----------------  -----------------
           H          1.087644888500     1.836998018122     3.462528876048     1.007825032070
           C          0.492856888500     1.429613018122     2.650871876048    12.000000000000
           C         -0.995501111500     1.441013018122     2.997045876048    12.000000000000
           H          0.690957888500     2.024980018122     1.764510876048     1.007825032070
           H          0.844710888500     0.419895018122     2.457305876048     1.007825032070
           C         -1.863278111500     0.866148018122     1.875302876048    12.000000000000
           H         -1.306224111500     2.458852018122     3.209310876048     1.007825032070
           H         -1.157229111500     0.866047018122     3.907512876048     1.007825032070
           C         -1.117665111500     0.681021018122     0.553539876048    12.000000000000
           H         -2.272933111500    -0.088672981878     2.185373876048     1.007825032070
           H         -2.706242111500     1.531271018122     1.701912876048     1.007825032070
           C         -0.099012111500    -0.449254981878     0.561503876048    12.000000000000
           H         -1.827609111500     0.452714018122    -0.239949123952     1.007825032070
           H         -0.626505111500     1.603479018122     0.251862876048     1.007825032070
           C          0.946894888500    -0.459758981878    -0.539714123952    12.000000000000
           O         -0.125936111500    -1.310019981878     1.389007876048    15.994914619560
           C          0.357566888500    -0.606988981878    -1.950451123952    12.000000000000
           H          1.621405888500    -1.280721981878    -0.328127123952     1.007825032070
           H          1.518360888500     0.464835018122    -0.482817123952     1.007825032070
           C          1.441580888500    -0.712280981878    -3.024900123952    12.000000000000
           H         -0.270768111500    -1.494440981878    -1.985651123952     1.007825032070
           H         -0.286019111500     0.239227018122    -2.176694123952     1.007825032070
           C          0.867547888500    -0.859224981878    -4.433373123952    12.000000000000
           H          2.083172888500    -1.561974981878    -2.804808123952     1.007825032070
           H          2.076271888500     0.170200018122    -2.982602123952     1.007825032070
           H          0.253787888500    -1.751575981878    -4.515429123952     1.007825032070
           H          0.248077888500    -0.006443981878    -4.696306123952     1.007825032070
           H          1.658831888500    -0.933188981878    -5.172479123952     1.007825032070

  Running in c1 symmetry.

  Rotational constants: A =      0.10042  B =      0.01641  C =      0.01611 [cm^-1]
  Rotational constants: A =   3010.43496  B =    491.95470  C =    482.85858 [MHz]
  Nuclear repulsion =  550.089966624348335

  Charge       = 0
  Multiplicity = 1
  Electrons    = 80
  Nalpha       = 40
  Nbeta        = 40

  ==> Algorithm <==

  SCF Algorithm Type is DF.
  DIIS enabled.
  MOM disabled.
  Fractional occupation disabled.
  Guess Type is CORE.
  Energy threshold   = 1.00e-06
  Density threshold  = 1.00e-06
  Integral threshold = 0.00e+00

  ==> Primary Basis <==

  Basis Set: 6-31G*
    Number of shells: 96
    Number of basis function: 186
    Number of Cartesian functions: 186
    Spherical Harmonics?: false
    Max angular momentum: 2

  ==> Pre-Iterations <==

   -------------------------------------------------------
    Irrep   Nso     Nmo     Nalpha   Nbeta   Ndocc  Nsocc
   -------------------------------------------------------
     A        186     186       0       0       0       0
   -------------------------------------------------------
    Total     186     186      40      40      40       0
   -------------------------------------------------------

 OEINTS: Overlap, kinetic, potential, dipole, and quadrupole integrals
         stored in file 35.

  ==> Integral Setup <==

  ==> DFJK: Density-Fitted J/K Matrices <==

    J tasked:                  Yes
    K tasked:                  Yes
    wK tasked:                  No
    OpenMP threads:              1
    Integrals threads:           1
    Memory (MB):              1430
    Algorithm:                Core
    Integral Cache:           NONE
    Schwarz Cutoff:          1E-12
    Fitting Condition:       1E-12

   => Auxiliary Basis Set <=

  Basis Set: 
    Number of shells: 402
    Number of basis function: 1260
    Number of Cartesian functions: 1260
    Spherical Harmonics?: false
    Max angular momentum: 3

  Minimum eigenvalue in the overlap matrix is 2.8582556996E-03.
  Using Symmetric Orthogonalization.
  SCF Guess: Core (One-Electron) Hamiltonian.

  ==> Iterations <==

                           Total Energy        Delta E     RMS |[F,P]|

   @DF-RHF iter   1:  -233.40926601544641   -2.33409e+02   6.99639e-02 
   @DF-RHF iter   2:   -33.57318836068066    1.99836e+02   6.61088e-02 DIIS
   @DF-RHF iter   3:  -247.73635311173496   -2.14163e+02   5.82476e-02 DIIS
   @DF-RHF iter   4:  -281.40233740824056   -3.36660e+01   6.22758e-02 DIIS
   @DF-RHF iter   5:  -393.71863426666960   -1.12316e+02   2.69809e-02 DIIS
   @DF-RHF iter   6:  -286.85178420556213    1.06867e+02   5.56856e-02 DIIS
   @DF-RHF iter   7:  -411.40842192078435   -1.24557e+02   1.83275e-02 DIIS
   @DF-RHF iter   8:  -425.60171235049825   -1.41933e+01   5.44081e-03 DIIS
   @DF-RHF iter   9:  -426.07877647478347   -4.77064e-01   1.95221e-03 DIIS
   @DF-RHF iter  10:  -426.13334944384155   -5.45730e-02   8.77089e-04 DIIS
   @DF-RHF iter  11:  -426.14838777532759   -1.50383e-02   3.37789e-04 DIIS
   @DF-RHF iter  12:  -426.15094372399278   -2.55595e-03   1.28248e-04 DIIS
   @DF-RHF iter  13:  -426.15139812058260   -4.54397e-04   2.93450e-05 DIIS
   @DF-RHF iter  14:  -426.15143159112415   -3.34705e-05   8.50276e-06 DIIS
   @DF-RHF iter  15:  -426.15143463065897   -3.03953e-06   2.63120e-06 DIIS
   @DF-RHF iter  16:  -426.15143507899097   -4.48332e-07   1.14259e-06 DIIS
   @DF-RHF iter  17:  -426.15143520179663   -1.22806e-07   5.00637e-07 DIIS

  ==> Post-Iterations <==

    Orbital Energies (a.u.)
    -----------------------

    Doubly Occupied:                                                      

       1A    -20.545847     2A    -11.323146     3A    -11.232695  
       4A    -11.229294     5A    -11.229030     6A    -11.226277  
       7A    -11.216452     8A    -11.215111     9A    -11.211812  
      10A    -11.201964    11A     -1.394259    12A     -1.096634  
      13A     -1.080868    14A     -1.020007    15A     -0.984232  
      16A     -0.915068    17A     -0.882386    18A     -0.809033  
      19A     -0.787897    20A     -0.720584    21A     -0.670497  
      22A     -0.653181    23A     -0.643846    24A     -0.624291  
      25A     -0.606895    26A     -0.594809    27A     -0.578411  
      28A     -0.552896    29A     -0.544388    30A     -0.532735  
      31A     -0.530988    32A     -0.509496    33A     -0.506944  
      34A     -0.484782    35A     -0.478414    36A     -0.475498  
      37A     -0.467345    38A     -0.458293    39A     -0.445462  
      40A     -0.392533  

    Virtual:                                                              

      41A      0.165025    42A      0.218853    43A      0.232409  
      44A      0.252898    45A      0.269576    46A      0.271676  
      47A      0.281924    48A      0.285160    49A      0.306768  
      50A      0.312717    51A      0.320306    52A      0.325687  
      53A      0.336550    54A      0.339710    55A      0.344380  
      56A      0.346880    57A      0.354529    58A      0.361391  
      59A      0.385033    60A      0.393098    61A      0.403814  
      62A      0.420957    63A      0.442629    64A      0.444699  
      65A      0.466052    66A      0.495426    67A      0.531628  
      68A      0.566904    69A      0.686403    70A      0.710679  
      71A      0.732900    72A      0.743338    73A      0.745208  
      74A      0.751839    75A      0.769767    76A      0.784020  
      77A      0.792286    78A      0.820062    79A      0.828043  
      80A      0.862489    81A      0.899678    82A      0.907470  
      83A      0.930908    84A      0.933537    85A      0.960007  
      86A      0.985793    87A      0.995293    88A      1.011421  
      89A      1.040432    90A      1.055962    91A      1.079546  
      92A      1.086990    93A      1.111014    94A      1.116018  
      95A      1.136524    96A      1.138453    97A      1.155531  
      98A      1.160933    99A      1.162109   100A      1.163408  
     101A      1.177946   102A      1.189340   103A      1.195982  
     104A      1.206607   105A      1.207242   106A      1.215165  
     107A      1.220389   108A      1.230804   109A      1.250997  
     110A      1.255012   111A      1.259357   112A      1.283205  
     113A      1.301326   114A      1.320175   115A      1.361322  
     116A      1.421236   117A      1.446723   118A      1.473103  
     119A      1.490874   120A      1.591178   121A      1.635354  
     122A      1.646258   123A      1.692081   124A      1.720163  
     125A      1.732607   126A      1.800591   127A      1.812619  
     128A      1.895254   129A      1.918367   130A      1.979730  
     131A      2.006493   132A      2.053047   133A      2.075973  
     134A      2.091243   135A      2.110176   136A      2.144469  
     137A      2.164607   138A      2.171066   139A      2.195410  
     140A      2.208936   141A      2.238063   142A      2.265101  
     143A      2.265611   144A      2.280548   145A      2.305232  
     146A      2.325512   147A      2.334393   148A      2.349921  
     149A      2.381250   150A      2.423150   151A      2.466379  
     152A      2.488401   153A      2.541870   154A      2.580170  
     155A      2.596181   156A      2.612683   157A      2.653545  
     158A      2.671726   159A      2.705022   160A      2.709574  
     161A      2.723793   162A      2.751393   163A      2.766910  
     164A      2.778703   165A      2.835069   166A      2.884031  
     167A      2.916534   168A      2.925509   169A      2.986757  
     170A      2.989494   171A      3.053439   172A      3.102496  
     173A      3.115230   174A      3.212261   175A      3.396781  
     176A      3.414751   177A      4.522377   178A      4.541364  
     179A      4.597952   180A      4.657393   181A      4.746942  
     182A      4.797569   183A      4.837314   184A      4.904469  
     185A      5.021275   186A      5.048484  

    Final Occupation by Irrep:
              A 
    DOCC [    40 ]

  Energy converged.

  @DF-RHF Final Energy:  -426.15143520179663

   => Energetics <=

    Nuclear Repulsion Energy =            550.0899666243483352
    One-Electron Energy =               -1668.3342526964866011
    Two-Electron Energy =                 692.0928508703433408
    DFT Exchange-Correlation Energy =       0.0000000000000000
    Empirical Dispersion Energy =           0.0000000000000000
    PCM Polarization Energy =               0.0000000000000000
    EFP Energy =                            0.0000000000000000
    Total Energy =                       -426.1514352017949250

    Alert: EFP and PCM quantities not currently incorporated into SCF psivars.

Properties will be evaluated at   0.000000,   0.000000,   0.000000 Bohr
  ==> Properties <==


Properties computed using the SCF density matrix

  Nuclear Dipole Moment: (a.u.)
     X:     1.5272      Y:     4.6356      Z:    -6.0349

  Electronic Dipole Moment: (a.u.)
     X:    -1.5181      Y:    -3.8942      Z:     5.1503

  Dipole Moment: (a.u.)
     X:     0.0091      Y:     0.7414      Z:    -0.8846     Total:     1.1542

  Dipole Moment: (Debye)
     X:     0.0231      Y:     1.8844      Z:    -2.2485     Total:     2.9338


  Saving occupied orbitals to File 180.

*** tstop() called on cx1-3-4-4.cx1.hpc.ic.ac.uk at Tue Jul  5 17:07:57 2016
Module time:
	user time   =      42.10 seconds =       0.70 minutes
	system time =       0.36 seconds =       0.01 minutes
	total time  =         43 seconds =       0.72 minutes
Total time:
	user time   =      42.10 seconds =       0.70 minutes
	system time =       0.36 seconds =       0.01 minutes
	total time  =         43 seconds =       0.72 minutes


Properties will be evaluated at   0.000000,   0.000000,   0.000000 Bohr

Properties computed using the  density matrix

  Nuclear Dipole Moment: (a.u.)
     X:     1.5272      Y:     4.6356      Z:    -6.0349

  Electronic Dipole Moment: (a.u.)
     X:    -1.5181      Y:    -3.8942      Z:     5.1503

  Dipole Moment: (a.u.)
     X:     0.0091      Y:     0.7414      Z:    -0.8846     Total:     1.1542

  Dipole Moment: (Debye)
     X:     0.0231      Y:     1.8844      Z:    -2.2485     Total:     2.9338

  Quadrupole Moment: (Debye Ang)
    XX:   -64.1386     YY:   -67.9551     ZZ:   -67.4702
    XY:    -0.7843     XZ:    -0.7677     YZ:     3.8784

  Traceless Quadrupole Moment: (Debye Ang)
    XX:     2.3827     YY:    -1.4338     ZZ:    -0.9489
    XY:    -0.7843     XZ:    -0.7677     YZ:     3.8784

  Mulliken Charges: (a.u.)
   Center  Symbol    Alpha    Beta     Spin     Total
       1     H     0.41704  0.41704  0.00000  0.16592
       2     C     3.26545  3.26545  0.00000 -0.53090
       3     C     3.14920  3.14920  0.00000 -0.29841
       4     H     0.42759  0.42759  0.00000  0.14482
       5     H     0.39849  0.39849  0.00000  0.20302
       6     C     3.15370  3.15370  0.00000 -0.30740
       7     H     0.42215  0.42215  0.00000  0.15571
       8     H     0.41499  0.41499  0.00000  0.17002
       9     C     3.21635  3.21635  0.00000 -0.43271
      10     H     0.40426  0.40426  0.00000  0.19147
      11     H     0.41917  0.41917  0.00000  0.16165
      12     C     2.73034  2.73034  0.00000  0.53931
      13     H     0.40177  0.40177  0.00000  0.19646
      14     H     0.41064  0.41064  0.00000  0.17872
      15     C     3.20112  3.20112  0.00000 -0.40223
      16     O     4.27040  4.27040  0.00000 -0.54080
      17     C     3.16389  3.16389  0.00000 -0.32779
      18     H     0.39973  0.39973  0.00000  0.20053
      19     H     0.41210  0.41210  0.00000  0.17580
      20     C     3.15188  3.15188  0.00000 -0.30375
      21     H     0.41363  0.41363  0.00000  0.17274
      22     H     0.41844  0.41844  0.00000  0.16312
      23     C     3.24035  3.24035  0.00000 -0.48069
      24     H     0.41835  0.41835  0.00000  0.16330
      25     H     0.42138  0.42138  0.00000  0.15725
      26     H     0.41958  0.41958  0.00000  0.16084
      27     H     0.42118  0.42118  0.00000  0.15765
      28     H     0.41683  0.41683  0.00000  0.16635

   Total alpha = 40.00000, Total beta = 40.00000, Total charge =  0.00000


*** PSI4 exiting successfully. Buy a developer a beer!
