
    -----------------------------------------------------------------------
          Psi4: An Open-Source Ab Initio Electronic Structure Package
                               Psi4 1.1 release

                         Git: Rev {HEAD} add49b9 


    R. M. Parrish, L. A. Burns, D. G. A. Smith, A. C. Simmonett,
    A. E. DePrince III, E. G. Hohenstein, U. Bozkaya, A. Yu. Sokolov,
    R. Di Remigio, R. M. Richard, J. F. Gonthier, A. M. James,
    H. R. McAlexander, A. Kumar, M. Saitow, X. Wang, B. P. Pritchard,
    P. Verma, H. F. Schaefer III, K. Patkowski, R. A. King, E. F. Valeev,
    F. A. Evangelista, J. M. Turney, T. D. Crawford, and C. D. Sherrill,
    J. Chem. Theory Comput. in press (2017).
    (doi: 10.1021/acs.jctc.7b00174)

    -----------------------------------------------------------------------


    Psi4 started on: Thursday, 21 September 2017 02:47PM

    Process ID:  25230
    PSIDATADIR: /home/raimis/opt/miniconda3/envs/htmd/share/psi4
    Memory:     500.0 MiB
    Threads:    1
    
  ==> Input File <==

--------------------------------------------------------------------------
set_num_threads( 8 )
memory 2.000000 gb

set { reference rks }
set { basis cc-pVDZ }

molecule MOL {
    0 1
    noreorient
    nocom
    symmetry c1
    O    1.014300  -0.002300   0.060500
    O    2.462400  -0.107500  -0.002400
    H    0.821200  -0.823600  -0.430600
    H    2.545747   0.068473  -0.958916
}

set optking { frozen_dihedral = (" 3 1 2 4 ") }

energy, wfn = energy('B3LYP-D3', return_wfn=True)

import os
os.chdir(os.environ['HTMD_PSI4_WORKDIR'])

oeprop(wfn, 'DIPOLE', 'QUADRUPOLE', 'MULLIKEN_CHARGES')

with open('psi4out.xyz', 'w') as f:
    f.write('4 ' )
    f.write('%.12f\n' % energy)
    f.write(MOL.save_string_xyz())
--------------------------------------------------------------------------
  Threads set to 8 by Python driver.

  Memory set to   1.863 GiB by Python driver.

*** tstart() called on computer03
*** at Thu Sep 21 14:47:19 2017

   => Loading Basis Set <=

    Name: CC-PVDZ
    Role: ORBITAL
    Keyword: BASIS
    atoms 1-2 entry O          line   190 file /home/raimis/opt/miniconda3/envs/htmd/share/psi4/basis/cc-pvdz.gbs 
    atoms 3-4 entry H          line    20 file /home/raimis/opt/miniconda3/envs/htmd/share/psi4/basis/cc-pvdz.gbs 


         ---------------------------------------------------------
                                   SCF
            by Justin Turney, Rob Parrish, and Andy Simmonett
                              RKS Reference
                        8 Threads,   1907 MiB Core
         ---------------------------------------------------------

  ==> Geometry <==

    Molecular point group: c1
    Full point group: C1

    Geometry (in Angstrom), charge = 0, multiplicity = 1:

       Center              X                  Y                   Z               Mass       
    ------------   -----------------  -----------------  -----------------  -----------------
           O          1.014300000000    -0.002300000000     0.060500000000    15.994914619560
           O          2.462400000000    -0.107500000000    -0.002400000000    15.994914619560
           H          0.821200000000    -0.823600000000    -0.430600000000     1.007825032070
           H          2.545747000000     0.068473000000    -0.958916000000     1.007825032070

  Running in c1 symmetry.

  Rotational constants: A =      9.24300  B =      0.13878  C =      0.13807 [cm^-1]
  Rotational constants: A = 277098.31226  B =   4160.54517  C =   4139.09306 [MHz]
  Nuclear repulsion =   36.839376374886768

  Charge       = 0
  Multiplicity = 1
  Electrons    = 18
  Nalpha       = 9
  Nbeta        = 9

  ==> Algorithm <==

  SCF Algorithm Type is DF.
  DIIS enabled.
  MOM disabled.
  Fractional occupation disabled.
  Guess Type is SAD.
  Energy threshold   = 1.00e-06
  Density threshold  = 1.00e-06
  Integral threshold = 0.00e+00

  ==> Primary Basis <==

  Basis Set: CC-PVDZ
    Blend: CC-PVDZ
    Number of shells: 18
    Number of basis function: 38
    Number of Cartesian functions: 40
    Spherical Harmonics?: true
    Max angular momentum: 2

  ==> DFT Potential <==

   => B3LYP Composite Functional <= 

    B3LYP Hybrid-GGA Exchange-Correlation Functional (VWN1-RPA)

    P.J. Stephens et. al., J. Phys. Chem., 98, 11623-11627, 1994

    Points   =           5000
    Deriv    =              1
    GGA      =           TRUE
    Meta     =          FALSE

    X_LRC        =          FALSE
    X_Hybrid     =           TRUE
    X_Alpha      =   2.000000E-01
    X_Omega      =   0.000000E+00
    C_LRC        =          FALSE
    C_Hybrid     =          FALSE
    C_Alpha      =   0.000000E+00
    C_Omega      =   0.000000E+00

   => Exchange Functionals <=

    0.8000    B3_X
    0.2000      HF 

   => Correlation Functionals <=

    0.1900 VWN3RPA_C
    0.8100   LYP_C

   => Molecular Quadrature <=

    Radial Scheme    =       TREUTLER
    Pruning Scheme   =           FLAT
    Nuclear Scheme   =       TREUTLER

    BS radius alpha  =              1
    Pruning alpha    =              1
    Radial Points    =             75
    Spherical Points =            302
    Total Points     =          88294
    Total Blocks     =             87
    Max Points       =           4736
    Max Functions    =             38

   => -D3ZERO: Empirical Dispersion <=

    Grimme's -D3 (zero-damping) Dispersion Correction
    Grimme S.; Antony J.; Ehrlich S.; Krieg H. (2010), J. Chem. Phys., 132: 154104

        S6 =   1.000000E+00
        S8 =   1.703000E+00
       SR6 =   1.261000E+00
    ALPHA6 =   1.400000E+01

   => Loading Basis Set <=

    Name: (CC-PVDZ AUX)
    Role: JKFIT
    Keyword: DF_BASIS_SCF
    atoms 1-2 entry O          line   220 file /home/raimis/opt/miniconda3/envs/htmd/share/psi4/basis/cc-pvdz-jkfit.gbs 
    atoms 3-4 entry H          line    50 file /home/raimis/opt/miniconda3/envs/htmd/share/psi4/basis/cc-pvdz-jkfit.gbs 

  ==> Pre-Iterations <==

   -------------------------------------------------------
    Irrep   Nso     Nmo     Nalpha   Nbeta   Ndocc  Nsocc
   -------------------------------------------------------
     A         38      38       0       0       0       0
   -------------------------------------------------------
    Total      38      38       9       9       9       0
   -------------------------------------------------------

  ==> Integral Setup <==

  ==> DFJK: Density-Fitted J/K Matrices <==

    J tasked:                  Yes
    K tasked:                  Yes
    wK tasked:                  No
    OpenMP threads:              8
    Integrals threads:           8
    Memory (MB):              1430
    Algorithm:                Core
    Integral Cache:           NONE
    Schwarz Cutoff:          1E-12
    Fitting Condition:       1E-12

   => Auxiliary Basis Set <=

  Basis Set: (CC-PVDZ AUX)
    Blend: CC-PVDZ-JKFIT
    Number of shells: 66
    Number of basis function: 186
    Number of Cartesian functions: 212
    Spherical Harmonics?: true
    Max angular momentum: 3

  Minimum eigenvalue in the overlap matrix is 2.5866410301E-02.
  Using Symmetric Orthogonalization.

  SCF Guess: Superposition of Atomic Densities via on-the-fly atomic UHF.

  ==> Iterations <==

                           Total Energy        Delta E     RMS |[F,P]|

   @DF-RKS iter   0:  -151.76311256113962   -1.51763e+02   6.16577e-02 
   @DF-RKS iter   1:  -151.52473883010103    2.38374e-01   7.29546e-03 
   @DF-RKS iter   2:  -151.53747716258158   -1.27383e-02   4.61962e-03 DIIS
   @DF-RKS iter   3:  -151.54493161868825   -7.45446e-03   1.49881e-03 DIIS
   @DF-RKS iter   4:  -151.54569178097424   -7.60162e-04   1.83208e-04 DIIS
   @DF-RKS iter   5:  -151.54569808356339   -6.30259e-06   1.42047e-04 DIIS
   @DF-RKS iter   6:  -151.54570724258841   -9.15903e-06   8.18145e-06 DIIS
   @DF-RKS iter   7:  -151.54570727145793   -2.88695e-08   1.10008e-06 DIIS
   @DF-RKS iter   8:  -151.54570727227591   -8.17977e-10   2.13275e-07 DIIS

  ==> Post-Iterations <==

    Orbital Energies (a.u.)
    -----------------------

    Doubly Occupied:                                                      

       1A    -19.190895     2A    -19.190857     3A     -1.117347  
       4A     -0.887084     5A     -0.538459     6A     -0.458689  
       7A     -0.423603     8A     -0.311286     9A     -0.274942  

    Virtual:                                                              

      10A      0.022298    11A      0.034590    12A      0.110651  
      13A      0.573510    14A      0.575781    15A      0.855758  
      16A      0.872715    17A      0.909787    18A      0.926200  
      19A      1.015074    20A      1.035054    21A      1.232445  
      22A      1.302151    23A      1.312033    24A      1.412210  
      25A      1.660668    26A      1.714623    27A      2.051014  
      28A      2.075417    29A      2.404788    30A      2.436795  
      31A      2.574195    32A      2.865015    33A      2.932393  
      34A      3.068576    35A      3.094966    36A      3.451868  
      37A      3.577410    38A      3.819263  

    Final Occupation by Irrep:
              A 
    DOCC [     9 ]

  Energy converged.

  @DF-RKS Final Energy:  -151.54570727227591

   => Energetics <=

    Nuclear Repulsion Energy =             36.8393763748867684
    One-Electron Energy =                -281.6001123162578210
    Two-Electron Energy =                 107.6767923616860116
    DFT Exchange-Correlation Energy =     -14.4615373625908532
    Empirical Dispersion Energy =          -0.0002263300000000
    PCM Polarization Energy =               0.0000000000000000
    EFP Energy =                            0.0000000000000000
    Total Energy =                       -151.5457072722759051



Properties will be evaluated at   0.000000,   0.000000,   0.000000 Bohr

Properties computed using the SCF density matrix

  Nuclear Dipole Moment: (a.u.)
     X:    58.9227      Y:    -3.0869      Z:    -1.7475

  Electronic Dipole Moment: (a.u.)
     X:   -58.9945      Y:     2.6648      Z:     0.8004

  Dipole Moment: (a.u.)
     X:    -0.0718      Y:    -0.4222      Z:    -0.9471     Total:     1.0394

  Dipole Moment: (Debye)
     X:    -0.1825      Y:    -1.0730      Z:    -2.4072     Total:     2.6418


*** tstop() called on computer03 at Thu Sep 21 14:47:33 2017
Module time:
	user time   =      13.93 seconds =       0.23 minutes
	system time =       0.54 seconds =       0.01 minutes
	total time  =         14 seconds =       0.23 minutes
Total time:
	user time   =      13.93 seconds =       0.23 minutes
	system time =       0.54 seconds =       0.01 minutes
	total time  =         14 seconds =       0.23 minutes


Properties will be evaluated at   0.000000,   0.000000,   0.000000 Bohr

Properties computed using the  density matrix

  Nuclear Dipole Moment: (a.u.)
     X:    58.9227      Y:    -3.0869      Z:    -1.7475

  Electronic Dipole Moment: (a.u.)
     X:   -58.9945      Y:     2.6648      Z:     0.8004

  Dipole Moment: (a.u.)
     X:    -0.0718      Y:    -0.4222      Z:    -0.9471     Total:     1.0394

  Dipole Moment: (Debye)
     X:    -0.1825      Y:    -1.0730      Z:    -2.4072     Total:     2.6418

  Quadrupole Moment: (Debye Ang)
    XX:   -11.8033     YY:   -10.7566     ZZ:    -9.7382
    XY:    -0.1877     XZ:    -4.7998     YZ:     0.6275

  Traceless Quadrupole Moment: (Debye Ang)
    XX:    -1.0373     YY:     0.0095     ZZ:     1.0278
    XY:    -0.1877     XZ:    -4.7998     YZ:     0.6275

  Mulliken Charges: (a.u.)
   Center  Symbol    Alpha    Beta     Spin     Total
       1     O     4.08537  4.08537  0.00000 -0.17073
       2     O     4.08535  4.08535  0.00000 -0.17069
       3     H     0.41463  0.41463  0.00000  0.17073
       4     H     0.41465  0.41465  0.00000  0.17070

   Total alpha =  9.00000, Total beta =  9.00000, Total charge = -0.00000


*** Psi4 exiting successfully. Buy a developer a beer!
