    -----------------------------------------------------------------------
          Psi4: An Open-Source Ab Initio Electronic Structure Package
                              Psi4 (no tag) Driver

                          Git: Rev {detached?}  

    J. M. Turney, A. C. Simmonett, R. M. Parrish, E. G. Hohenstein,
    F. A. Evangelista, J. T. Fermann, B. J. Mintz, L. A. Burns, J. J. Wilke,
    M. L. Abrams, N. J. Russ, M. L. Leininger, C. L. Janssen, E. T. Seidl,
    W. D. Allen, H. F. Schaefer, R. A. King, E. F. Valeev, C. D. Sherrill,
    and T. D. Crawford, WIREs Comput. Mol. Sci. 2, 556-565 (2012)
    (doi: 10.1002/wcms.93)

                         Additional Contributions by
    A. E. DePrince, M. Saitow, U. Bozkaya, A. Yu. Sokolov
    -----------------------------------------------------------------------


    Psi4 started on: Tue Jul  5 16:26:49 2016

    Process ID:  27014
    PSI4DATADIR: /export131/home/mjharvey/miniconda3/share
    Memory level set to 256.000 MB

  ==> Input File <==

--------------------------------------------------------------------------
set {
	reference rhf
	basis 6-31G*
}


set_num_threads( 1 )
memory 2 gb

molecule MOL {
0 1

H	 1.142589	 -0.020345	 1.359544
C	 1.115261	 -0.020839	 0.262750
C	 0.065331	 0.871482	 -0.349150
O	 1.880757	 -0.688912	 -0.353216
C	 -1.339775	 0.583656	 0.198860
H	 0.102478	 0.754472	 -1.426109
H	 0.338789	 1.899065	 -0.113660
C	 -1.808407	 -0.848507	 -0.061364
H	 -2.036183	 1.280685	 -0.256307
H	 -1.360094	 0.788874	 1.267089
H	 -1.828843	 -1.063152	 -1.125336
H	 -2.808409	 -1.004529	 0.329750
H	 -1.153967	 -1.577789	 0.406873

	symmetry c1
}
set optking {
	frozen_dihedral = ("
		6 3 2 4
	")
}

ee = energy('scf')
oeprop('DIPOLE', 'QUADRUPOLE', 'MULLIKEN_CHARGES')
f=open( 'psi4out.xyz', 'w' )
f.write( "13  " )
f.write( str(ee) + "\n" )
f.write( MOL.save_string_xyz() )
f.close()
--------------------------------------------------------------------------

  Memory set to   2.000 GiB by Python script.

*** tstart() called on cx1-3-1-3.cx1.hpc.ic.ac.uk
*** at Tue Jul  5 16:26:50 2016


         ---------------------------------------------------------
                                   SCF
            by Justin Turney, Rob Parrish, and Andy Simmonett
                              RHF Reference
                        1 Threads,   2000 MiB Core
         ---------------------------------------------------------

  ==> Geometry <==

    Molecular point group: c1
    Full point group: C1

    Geometry (in Angstrom), charge = 0, multiplicity = 1:

       Center              X                  Y                   Z               Mass       
    ------------   -----------------  -----------------  -----------------  -----------------
           H          1.159126776716     0.020234117496     1.423259857072     1.007825032070
           C          1.131798776716     0.019740117496     0.326465857072    12.000000000000
           C          0.081868776716     0.912061117496    -0.285434142928    12.000000000000
           O          1.897294776716    -0.648332882504    -0.289500142928    15.994914619560
           C         -1.323237223284     0.624235117496     0.262575857072    12.000000000000
           H          0.119015776716     0.795051117496    -1.362393142928     1.007825032070
           H          0.355326776716     1.939644117496    -0.049944142928     1.007825032070
           C         -1.791869223284    -0.807927882504     0.002351857072    12.000000000000
           H         -2.019645223284     1.321264117496    -0.192591142928     1.007825032070
           H         -1.343556223284     0.829453117496     1.330804857072     1.007825032070
           H         -1.812305223284    -1.022572882504    -1.061620142928     1.007825032070
           H         -2.791871223284    -0.963949882504     0.393465857072     1.007825032070
           H         -1.137429223284    -1.537209882504     0.470588857072     1.007825032070

  Running in c1 symmetry.

  Rotational constants: A =      0.32988  B =      0.10239  C =      0.08712 [cm^-1]
  Rotational constants: A =   9889.42247  B =   3069.67264  C =   2611.89448 [MHz]
  Nuclear repulsion =  174.139978304562760

  Charge       = 0
  Multiplicity = 1
  Electrons    = 40
  Nalpha       = 20
  Nbeta        = 20

  ==> Algorithm <==

  SCF Algorithm Type is DF.
  DIIS enabled.
  MOM disabled.
  Fractional occupation disabled.
  Guess Type is CORE.
  Energy threshold   = 1.00e-06
  Density threshold  = 1.00e-06
  Integral threshold = 0.00e+00

  ==> Primary Basis <==

  Basis Set: 6-31G*
    Number of shells: 46
    Number of basis function: 91
    Number of Cartesian functions: 91
    Spherical Harmonics?: false
    Max angular momentum: 2

  ==> Pre-Iterations <==

   -------------------------------------------------------
    Irrep   Nso     Nmo     Nalpha   Nbeta   Ndocc  Nsocc
   -------------------------------------------------------
     A         91      91       0       0       0       0
   -------------------------------------------------------
    Total      91      91      20      20      20       0
   -------------------------------------------------------

 OEINTS: Overlap, kinetic, potential, dipole, and quadrupole integrals
         stored in file 35.

  ==> Integral Setup <==

  ==> DFJK: Density-Fitted J/K Matrices <==

    J tasked:                  Yes
    K tasked:                  Yes
    wK tasked:                  No
    OpenMP threads:              1
    Integrals threads:           1
    Memory (MB):              1430
    Algorithm:                Core
    Integral Cache:           NONE
    Schwarz Cutoff:          1E-12
    Fitting Condition:       1E-12

   => Auxiliary Basis Set <=

  Basis Set: 
    Number of shells: 192
    Number of basis function: 605
    Number of Cartesian functions: 605
    Spherical Harmonics?: false
    Max angular momentum: 3

  Minimum eigenvalue in the overlap matrix is 4.3103320685E-03.
  Using Symmetric Orthogonalization.
  SCF Guess: Core (One-Electron) Hamiltonian.

  ==> Iterations <==

                           Total Energy        Delta E     RMS |[F,P]|

   @DF-RHF iter   1:  -180.52941165881737   -1.80529e+02   8.03436e-02 
   @DF-RHF iter   2:  -135.52013066565996    4.50093e+01   7.81013e-02 DIIS
   @DF-RHF iter   3:  -207.37338600496076   -7.18533e+01   4.16167e-02 DIIS
   @DF-RHF iter   4:  -199.09638547303433    8.27700e+00   6.21502e-02 DIIS
   @DF-RHF iter   5:  -230.35887974027850   -3.12625e+01   1.17490e-02 DIIS
   @DF-RHF iter   6:  -230.74972731969240   -3.90848e-01   8.20838e-03 DIIS
   @DF-RHF iter   7:  -230.95185224578654   -2.02125e-01   2.36077e-03 DIIS
   @DF-RHF iter   8:  -230.97963718521572   -2.77849e-02   8.77702e-04 DIIS
   @DF-RHF iter   9:  -230.98403012439661   -4.39294e-03   2.50499e-04 DIIS
   @DF-RHF iter  10:  -230.98444351877038   -4.13394e-04   7.07311e-05 DIIS
   @DF-RHF iter  11:  -230.98448992984783   -4.64111e-05   1.92459e-05 DIIS
   @DF-RHF iter  12:  -230.98449440165734   -4.47181e-06   7.53356e-06 DIIS
   @DF-RHF iter  13:  -230.98449523634940   -8.34692e-07   3.58391e-06 DIIS
   @DF-RHF iter  14:  -230.98449546821593   -2.31867e-07   1.15384e-06 DIIS
   @DF-RHF iter  15:  -230.98449550487226   -3.66563e-08   5.05155e-07 DIIS

  ==> Post-Iterations <==

    Orbital Energies (a.u.)
    -----------------------

    Doubly Occupied:                                                      

       1A    -20.563055     2A    -11.327099     3A    -11.238849  
       4A    -11.235857     5A    -11.221630     6A     -1.402965  
       7A     -1.087052     8A     -0.972684     9A     -0.849142  
      10A     -0.787821    11A     -0.665154    12A     -0.648514  
      13A     -0.628446    14A     -0.595838    15A     -0.558590  
      16A     -0.531340    17A     -0.509353    18A     -0.491778  
      19A     -0.482072    20A     -0.410430  

    Virtual:                                                              

      21A      0.159095    22A      0.234671    23A      0.267094  
      24A      0.277298    25A      0.293479    26A      0.306287  
      27A      0.314596    28A      0.331730    29A      0.342004  
      30A      0.387051    31A      0.402183    32A      0.451872  
      33A      0.494409    34A      0.701326    35A      0.709806  
      36A      0.729264    37A      0.779573    38A      0.795288  
      39A      0.846310    40A      0.893817    41A      0.922090  
      42A      0.943229    43A      0.979396    44A      1.021503  
      45A      1.056314    46A      1.107111    47A      1.125535  
      48A      1.127484    49A      1.142787    50A      1.181303  
      51A      1.193439    52A      1.204488    53A      1.227112  
      54A      1.247375    55A      1.269065    56A      1.311744  
      57A      1.357537    58A      1.427875    59A      1.615942  
      60A      1.654295    61A      1.750878    62A      1.789937  
      63A      1.853418    64A      1.899692    65A      1.956573  
      66A      2.004929    67A      2.112057    68A      2.144680  
      69A      2.173767    70A      2.212087    71A      2.273814  
      72A      2.315182    73A      2.400745    74A      2.418232  
      75A      2.495018    76A      2.585939    77A      2.641153  
      78A      2.676325    79A      2.699783    80A      2.795463  
      81A      2.877721    82A      2.958661    83A      2.994747  
      84A      3.036314    85A      3.259291    86A      3.365350  
      87A      4.308521    88A      4.523487    89A      4.629546  
      90A      4.798469    91A      4.919967  

    Final Occupation by Irrep:
              A 
    DOCC [    20 ]

  Energy converged.

  @DF-RHF Final Energy:  -230.98449550487226

   => Energetics <=

    Nuclear Repulsion Energy =            174.1399783045627601
    One-Electron Energy =                -657.8335855579623512
    Two-Electron Energy =                 252.7091117485271639
    DFT Exchange-Correlation Energy =       0.0000000000000000
    Empirical Dispersion Energy =           0.0000000000000000
    PCM Polarization Energy =               0.0000000000000000
    EFP Energy =                            0.0000000000000000
    Total Energy =                       -230.9844955048724273

    Alert: EFP and PCM quantities not currently incorporated into SCF psivars.

Properties will be evaluated at   0.000000,   0.000000,   0.000000 Bohr
  ==> Properties <==


Properties computed using the SCF density matrix

  Nuclear Dipole Moment: (a.u.)
     X:    -6.9950      Y:     1.2924      Z:     0.8907

  Electronic Dipole Moment: (a.u.)
     X:     6.0893      Y:    -0.6005      Z:    -0.4405

  Dipole Moment: (a.u.)
     X:    -0.9058      Y:     0.6919      Z:     0.4502     Total:     1.2255

  Dipole Moment: (Debye)
     X:    -2.3023      Y:     1.7586      Z:     1.1444     Total:     3.1149


  Saving occupied orbitals to File 180.

*** tstop() called on cx1-3-1-3.cx1.hpc.ic.ac.uk at Tue Jul  5 16:26:54 2016
Module time:
	user time   =       4.09 seconds =       0.07 minutes
	system time =       0.02 seconds =       0.00 minutes
	total time  =          4 seconds =       0.07 minutes
Total time:
	user time   =       4.09 seconds =       0.07 minutes
	system time =       0.02 seconds =       0.00 minutes
	total time  =          4 seconds =       0.07 minutes


Properties will be evaluated at   0.000000,   0.000000,   0.000000 Bohr

Properties computed using the  density matrix

  Nuclear Dipole Moment: (a.u.)
     X:    -6.9950      Y:     1.2924      Z:     0.8907

  Electronic Dipole Moment: (a.u.)
     X:     6.0893      Y:    -0.6005      Z:    -0.4405

  Dipole Moment: (a.u.)
     X:    -0.9058      Y:     0.6919      Z:     0.4502     Total:     1.2255

  Dipole Moment: (Debye)
     X:    -2.3023      Y:     1.7586      Z:     1.1444     Total:     3.1149

  Quadrupole Moment: (Debye Ang)
    XX:   -36.7815     YY:   -32.1193     ZZ:   -31.0681
    XY:     3.0101     XZ:     2.1448     YZ:    -0.5629

  Traceless Quadrupole Moment: (Debye Ang)
    XX:    -3.4585     YY:     1.2037     ZZ:     2.2549
    XY:     3.0101     XZ:     2.1448     YZ:    -0.5629

  Mulliken Charges: (a.u.)
   Center  Symbol    Alpha    Beta     Spin     Total
       1     H     0.43248  0.43248  0.00000  0.13505
       2     C     2.83157  2.83157  0.00000  0.33686
       3     C     3.20727  3.20727  0.00000 -0.41454
       4     O     4.23722  4.23722  0.00000 -0.47445
       5     C     3.16507  3.16507  0.00000 -0.33014
       6     H     0.39998  0.39998  0.00000  0.20003
       7     H     0.40711  0.40711  0.00000  0.18578
       8     C     3.24347  3.24347  0.00000 -0.48694
       9     H     0.41123  0.41123  0.00000  0.17754
      10     H     0.41851  0.41851  0.00000  0.16298
      11     H     0.41483  0.41483  0.00000  0.17033
      12     H     0.41499  0.41499  0.00000  0.17002
      13     H     0.41626  0.41626  0.00000  0.16747

   Total alpha = 20.00000, Total beta = 20.00000, Total charge =  0.00000


*** PSI4 exiting successfully. Buy a developer a beer!
