    -----------------------------------------------------------------------
          Psi4: An Open-Source Ab Initio Electronic Structure Package
                              Psi4 (no tag) Driver

                          Git: Rev {detached?}  

    J. M. Turney, A. C. Simmonett, R. M. Parrish, E. G. Hohenstein,
    F. A. Evangelista, J. T. Fermann, B. J. Mintz, L. A. Burns, J. J. Wilke,
    M. L. Abrams, N. J. Russ, M. L. Leininger, C. L. Janssen, E. T. Seidl,
    W. D. Allen, H. F. Schaefer, R. A. King, E. F. Valeev, C. D. Sherrill,
    and T. D. Crawford, WIREs Comput. Mol. Sci. 2, 556-565 (2012)
    (doi: 10.1002/wcms.93)

                         Additional Contributions by
    A. E. DePrince, M. Saitow, U. Bozkaya, A. Yu. Sokolov
    -----------------------------------------------------------------------


    Psi4 started on: Tue Jul  5 16:32:15 2016

    Process ID:  27922
    PSI4DATADIR: /export131/home/mjharvey/miniconda3/share
    Memory level set to 256.000 MB

  ==> Input File <==

--------------------------------------------------------------------------
set {
	reference rhf
	basis 6-31G*
}


set_num_threads( 1 )
memory 2 gb

molecule MOL {
0 1

H	 -3.042581	 -0.665861	 0.004336
O	 -2.245037	 -1.176175	 0.000806
C	 -1.162163	 -0.365336	 0.001020
C	 -1.224778	 0.958120	 -0.396312
C	 0.042829	 -0.916588	 0.419284
H	 -2.157483	 1.386020	 -0.723323
C	 -0.068465	 1.725058	 -0.370636
H	 0.055699	 -1.948666	 0.718897
C	 1.195080	 -0.150606	 0.445771
H	 -0.113052	 2.753939	 -0.681206
C	 1.131614	 1.183669	 0.043710
C	 2.500951	 -0.742158	 0.923126
H	 2.019897	 1.790416	 0.055640
H	 3.323266	 -0.443332	 0.281806
H	 2.462627	 -1.824817	 0.938676
H	 2.731798	 -0.403924	 1.929434

	symmetry c1
}
ee = energy('scf')
oeprop('DIPOLE', 'QUADRUPOLE', 'MULLIKEN_CHARGES')
f=open( 'psi4out.xyz', 'w' )
f.write( "16  " )
f.write( str(ee) + "\n" )
f.write( MOL.save_string_xyz() )
f.close()
--------------------------------------------------------------------------

  Memory set to   2.000 GiB by Python script.

*** tstart() called on cx1-3-1-3.cx1.hpc.ic.ac.uk
*** at Tue Jul  5 16:32:16 2016


         ---------------------------------------------------------
                                   SCF
            by Justin Turney, Rob Parrish, and Andy Simmonett
                              RHF Reference
                        1 Threads,   2000 MiB Core
         ---------------------------------------------------------

  ==> Geometry <==

    Molecular point group: c1
    Full point group: C1

    Geometry (in Angstrom), charge = 0, multiplicity = 1:

       Center              X                  Y                   Z               Mass       
    ------------   -----------------  -----------------  -----------------  -----------------
           H         -3.027710487503    -0.685682868565    -0.137703730733     1.007825032070
           O         -2.230166487503    -1.195996868565    -0.141233730733    15.994914619560
           C         -1.147292487503    -0.385157868565    -0.141019730733    12.000000000000
           C         -1.209907487503     0.938298131435    -0.538351730733    12.000000000000
           C          0.057699512497    -0.936409868565     0.277244269267    12.000000000000
           H         -2.142612487503     1.366198131435    -0.865362730733     1.007825032070
           C         -0.053594487503     1.705236131435    -0.512675730733    12.000000000000
           H          0.070569512497    -1.968487868565     0.576857269267     1.007825032070
           C          1.209950512497    -0.170427868565     0.303731269267    12.000000000000
           H         -0.098181487503     2.734117131435    -0.823245730733     1.007825032070
           C          1.146484512497     1.163847131435    -0.098329730733    12.000000000000
           C          2.515821512497    -0.761979868565     0.781086269267    12.000000000000
           H          2.034767512497     1.770594131435    -0.086399730733     1.007825032070
           H          3.338136512497    -0.463153868565     0.139766269267     1.007825032070
           H          2.477497512497    -1.844638868565     0.796636269267     1.007825032070
           H          2.746668512497    -0.423745868565     1.787394269267     1.007825032070

  Running in c1 symmetry.

  Rotational constants: A =      0.12400  B =      0.06056  C =      0.04101 [cm^-1]
  Rotational constants: A =   3717.31805  B =   1815.50497  C =   1229.50950 [MHz]
  Nuclear repulsion =  345.560149249641427

  Charge       = 0
  Multiplicity = 1
  Electrons    = 58
  Nalpha       = 29
  Nbeta        = 29

  ==> Algorithm <==

  SCF Algorithm Type is DF.
  DIIS enabled.
  MOM disabled.
  Fractional occupation disabled.
  Guess Type is CORE.
  Energy threshold   = 1.00e-06
  Density threshold  = 1.00e-06
  Integral threshold = 0.00e+00

  ==> Primary Basis <==

  Basis Set: 6-31G*
    Number of shells: 64
    Number of basis function: 136
    Number of Cartesian functions: 136
    Spherical Harmonics?: false
    Max angular momentum: 2

  ==> Pre-Iterations <==

   -------------------------------------------------------
    Irrep   Nso     Nmo     Nalpha   Nbeta   Ndocc  Nsocc
   -------------------------------------------------------
     A        136     136       0       0       0       0
   -------------------------------------------------------
    Total     136     136      29      29      29       0
   -------------------------------------------------------

 OEINTS: Overlap, kinetic, potential, dipole, and quadrupole integrals
         stored in file 35.

  ==> Integral Setup <==

  ==> DFJK: Density-Fitted J/K Matrices <==

    J tasked:                  Yes
    K tasked:                  Yes
    wK tasked:                  No
    OpenMP threads:              1
    Integrals threads:           1
    Memory (MB):              1430
    Algorithm:                Core
    Integral Cache:           NONE
    Schwarz Cutoff:          1E-12
    Fitting Condition:       1E-12

   => Auxiliary Basis Set <=

  Basis Set: 
    Number of shells: 264
    Number of basis function: 848
    Number of Cartesian functions: 848
    Spherical Harmonics?: false
    Max angular momentum: 3

  Minimum eigenvalue in the overlap matrix is 4.1557513417E-04.
  Using Symmetric Orthogonalization.
  SCF Guess: Core (One-Electron) Hamiltonian.

  ==> Iterations <==

                           Total Energy        Delta E     RMS |[F,P]|

   @DF-RHF iter   1:  -269.11288771854379   -2.69113e+02   6.61431e-02 
   @DF-RHF iter   2:  -221.09341409755439    4.80195e+01   5.47439e-02 DIIS
   @DF-RHF iter   3:  -269.23119219765181   -4.81378e+01   6.27306e-02 DIIS
   @DF-RHF iter   4:  -328.25707529700821   -5.90259e+01   2.86867e-02 DIIS
   @DF-RHF iter   5:  -336.08357956232931   -7.82650e+00   2.41806e-02 DIIS
   @DF-RHF iter   6:  -344.08018125919807   -7.99660e+00   6.82216e-03 DIIS
   @DF-RHF iter   7:  -344.54625581776111   -4.66075e-01   2.13165e-03 DIIS
   @DF-RHF iter   8:  -344.58875195072937   -4.24961e-02   5.84731e-04 DIIS
   @DF-RHF iter   9:  -344.59377384595496   -5.02190e-03   1.86431e-04 DIIS
   @DF-RHF iter  10:  -344.59429244656349   -5.18601e-04   9.94405e-05 DIIS
   @DF-RHF iter  11:  -344.59449605273187   -2.03606e-04   3.24010e-05 DIIS
   @DF-RHF iter  12:  -344.59453511146262   -3.90587e-05   1.41646e-05 DIIS
   @DF-RHF iter  13:  -344.59454408012971   -8.96867e-06   7.22868e-06 DIIS
   @DF-RHF iter  14:  -344.59454609233296   -2.01220e-06   2.65902e-06 DIIS
   @DF-RHF iter  15:  -344.59454635689167   -2.64559e-07   4.54493e-07 DIIS

  ==> Post-Iterations <==

    Orbital Energies (a.u.)
    -----------------------

    Doubly Occupied:                                                      

       1A    -20.587505     2A    -11.294949     3A    -11.241294  
       4A    -11.234557     5A    -11.222505     6A    -11.220034  
       7A    -11.216280     8A    -11.216069     9A     -1.406598  
      10A     -1.149225    11A     -1.042718    12A     -1.004428  
      13A     -0.935922    14A     -0.823051    15A     -0.822422  
      16A     -0.713237    17A     -0.680027    18A     -0.652916  
      19A     -0.610216    20A     -0.590293    21A     -0.572822  
      22A     -0.568194    23A     -0.560920    24A     -0.529613  
      25A     -0.504328    26A     -0.481290    27A     -0.466959  
      28A     -0.328670    29A     -0.306617  

    Virtual:                                                              

      30A      0.148070    31A      0.162262    32A      0.226931  
      33A      0.245077    34A      0.267663    35A      0.295393  
      36A      0.313891    37A      0.326130    38A      0.343384  
      39A      0.348370    40A      0.397761    41A      0.413739  
      42A      0.457377    43A      0.481148    44A      0.511987  
      45A      0.548516    46A      0.592478    47A      0.625853  
      48A      0.722044    49A      0.739560    50A      0.753369  
      51A      0.771717    52A      0.774603    53A      0.818115  
      54A      0.835204    55A      0.836702    56A      0.850956  
      57A      0.875451    58A      0.883320    59A      0.888590  
      60A      0.916180    61A      0.953806    62A      0.971731  
      63A      1.011156    64A      1.024423    65A      1.036575  
      66A      1.111624    67A      1.122031    68A      1.132579  
      69A      1.157334    70A      1.167718    71A      1.176201  
      72A      1.195235    73A      1.213195    74A      1.230097  
      75A      1.245201    76A      1.252680    77A      1.265615  
      78A      1.334219    79A      1.376479    80A      1.409213  
      81A      1.431022    82A      1.473662    83A      1.499989  
      84A      1.543995    85A      1.615659    86A      1.629847  
      87A      1.647948    88A      1.676961    89A      1.745940  
      90A      1.758695    91A      1.769652    92A      1.781269  
      93A      1.964987    94A      2.056886    95A      2.092684  
      96A      2.113209    97A      2.145343    98A      2.191805  
      99A      2.204326   100A      2.210293   101A      2.238815  
     102A      2.266677   103A      2.296757   104A      2.327202  
     105A      2.416273   106A      2.450916   107A      2.480321  
     108A      2.498716   109A      2.538403   110A      2.554973  
     111A      2.631584   112A      2.646217   113A      2.693617  
     114A      2.712634   115A      2.730378   116A      2.795848  
     117A      2.869475   118A      2.910354   119A      2.962169  
     120A      3.042087   121A      3.045220   122A      3.124749  
     123A      3.139665   124A      3.209581   125A      3.276756  
     126A      3.330255   127A      3.527619   128A      3.843639  
     129A      4.361981   130A      4.535793   131A      4.553142  
     132A      4.623385   133A      4.677715   134A      4.795233  
     135A      4.879392   136A      5.195050  

    Final Occupation by Irrep:
              A 
    DOCC [    29 ]

  Energy converged.

  @DF-RHF Final Energy:  -344.59454635689167

   => Energetics <=

    Nuclear Repulsion Energy =            345.5601492496414266
    One-Electron Energy =               -1152.3422725602740684
    Two-Electron Energy =                 462.1875769537406882
    DFT Exchange-Correlation Energy =       0.0000000000000000
    Empirical Dispersion Energy =           0.0000000000000000
    PCM Polarization Energy =               0.0000000000000000
    EFP Energy =                            0.0000000000000000
    Total Energy =                       -344.5945463568919536

    Alert: EFP and PCM quantities not currently incorporated into SCF psivars.

Properties will be evaluated at   0.000000,   0.000000,   0.000000 Bohr
  ==> Properties <==


Properties computed using the SCF density matrix

  Nuclear Dipole Moment: (a.u.)
     X:     5.0508      Y:     0.4491      Z:     1.3005

  Electronic Dipole Moment: (a.u.)
     X:    -5.1832      Y:     0.0439      Z:    -1.2311

  Dipole Moment: (a.u.)
     X:    -0.1324      Y:     0.4930      Z:     0.0693     Total:     0.5152

  Dipole Moment: (Debye)
     X:    -0.3365      Y:     1.2531      Z:     0.1763     Total:     1.3094


  Saving occupied orbitals to File 180.

*** tstop() called on cx1-3-1-3.cx1.hpc.ic.ac.uk at Tue Jul  5 16:32:27 2016
Module time:
	user time   =      10.75 seconds =       0.18 minutes
	system time =       0.06 seconds =       0.00 minutes
	total time  =         11 seconds =       0.18 minutes
Total time:
	user time   =      10.75 seconds =       0.18 minutes
	system time =       0.06 seconds =       0.00 minutes
	total time  =         11 seconds =       0.18 minutes


Properties will be evaluated at   0.000000,   0.000000,   0.000000 Bohr

Properties computed using the  density matrix

  Nuclear Dipole Moment: (a.u.)
     X:     5.0508      Y:     0.4491      Z:     1.3005

  Electronic Dipole Moment: (a.u.)
     X:    -5.1832      Y:     0.0439      Z:    -1.2311

  Dipole Moment: (a.u.)
     X:    -0.1324      Y:     0.4930      Z:     0.0693     Total:     0.5152

  Dipole Moment: (Debye)
     X:    -0.3365      Y:     1.2531      Z:     0.1763     Total:     1.3094

  Quadrupole Moment: (Debye Ang)
    XX:   -38.5429     YY:   -47.0945     ZZ:   -50.1943
    XY:    -3.1190     XZ:     1.6003     YZ:    -2.2357

  Traceless Quadrupole Moment: (Debye Ang)
    XX:     6.7343     YY:    -1.8173     ZZ:    -4.9170
    XY:    -3.1190     XZ:     1.6003     YZ:    -2.2357

  Mulliken Charges: (a.u.)
   Center  Symbol    Alpha    Beta     Spin     Total
       1     H     0.27209  0.27209  0.00000  0.45583
       2     O     4.37956  4.37956  0.00000 -0.75912
       3     C     2.79209  2.79209  0.00000  0.41583
       4     C     3.14718  3.14718  0.00000 -0.29436
       5     C     3.13986  3.13986  0.00000 -0.27973
       6     H     0.40462  0.40462  0.00000  0.19076
       7     C     3.08765  3.08765  0.00000 -0.17530
       8     H     0.39443  0.39443  0.00000  0.21115
       9     C     2.96965  2.96965  0.00000  0.06070
      10     H     0.39897  0.39897  0.00000  0.20206
      11     C     3.12333  3.12333  0.00000 -0.24665
      12     C     3.25464  3.25464  0.00000 -0.50929
      13     H     0.40335  0.40335  0.00000  0.19331
      14     H     0.41178  0.41178  0.00000  0.17645
      15     H     0.41154  0.41154  0.00000  0.17693
      16     H     0.40928  0.40928  0.00000  0.18144

   Total alpha = 29.00000, Total beta = 29.00000, Total charge = -0.00000


*** PSI4 exiting successfully. Buy a developer a beer!
