    -----------------------------------------------------------------------
          Psi4: An Open-Source Ab Initio Electronic Structure Package
                              Psi4 (no tag) Driver

                          Git: Rev {detached?}  

    J. M. Turney, A. C. Simmonett, R. M. Parrish, E. G. Hohenstein,
    F. A. Evangelista, J. T. Fermann, B. J. Mintz, L. A. Burns, J. J. Wilke,
    M. L. Abrams, N. J. Russ, M. L. Leininger, C. L. Janssen, E. T. Seidl,
    W. D. Allen, H. F. Schaefer, R. A. King, E. F. Valeev, C. D. Sherrill,
    and T. D. Crawford, WIREs Comput. Mol. Sci. 2, 556-565 (2012)
    (doi: 10.1002/wcms.93)

                         Additional Contributions by
    A. E. DePrince, M. Saitow, U. Bozkaya, A. Yu. Sokolov
    -----------------------------------------------------------------------


    Psi4 started on: Tue Jul  5 16:26:47 2016

    Process ID:  16715
    PSI4DATADIR: /export131/home/mjharvey/miniconda3/share
    Memory level set to 256.000 MB

  ==> Input File <==

--------------------------------------------------------------------------
set {
	reference rhf
	basis 6-31G*
}


set_num_threads( 1 )
memory 2 gb

molecule MOL {
0 1

H	 -0.806119	 -1.200383	 -0.546436
O	 -1.422729	 -0.573567	 -0.196946
C	 -0.731407	 0.539437	 0.309156
C	 0.680193	 0.672443	 -0.251532
H	 -1.319765	 1.404033	 0.030086
H	 -0.700012	 0.506517	 1.397677
C	 0.752091	 0.528005	 -1.771951
H	 1.079875	 1.638374	 0.043217
H	 1.304879	 -0.086399	 0.214801
H	 0.196828	 1.315991	 -2.271908
H	 1.777501	 0.588093	 -2.121077
H	 0.349335	 -0.428032	 -2.097594

	symmetry c1
}
set optking {
	frozen_dihedral = ("
		8 4 3 2
	")
}

ee = energy('scf')
oeprop('DIPOLE', 'QUADRUPOLE', 'MULLIKEN_CHARGES')
f=open( 'psi4out.xyz', 'w' )
f.write( "12  " )
f.write( str(ee) + "\n" )
f.write( MOL.save_string_xyz() )
f.close()
--------------------------------------------------------------------------

  Memory set to   2.000 GiB by Python script.

*** tstart() called on cx1-1-3-4.cx1.hpc.ic.ac.uk
*** at Tue Jul  5 16:26:47 2016


         ---------------------------------------------------------
                                   SCF
            by Justin Turney, Rob Parrish, and Andy Simmonett
                              RHF Reference
                        1 Threads,   2000 MiB Core
         ---------------------------------------------------------

  ==> Geometry <==

    Molecular point group: c1
    Full point group: C1

    Geometry (in Angstrom), charge = 0, multiplicity = 1:

       Center              X                  Y                   Z               Mass       
    ------------   -----------------  -----------------  -----------------  -----------------
           H         -0.598840158835    -1.458001223569    -0.061647941547     1.007825032070
           O         -1.215450158835    -0.831185223569     0.287842058453    15.994914619560
           C         -0.524128158835     0.281818776431     0.793944058453    12.000000000000
           C          0.887471841165     0.414824776431     0.233256058453    12.000000000000
           H         -1.112486158835     1.146414776431     0.514874058453     1.007825032070
           H         -0.492733158835     0.248898776431     1.882465058453     1.007825032070
           C          0.959369841165     0.270386776431    -1.287162941547    12.000000000000
           H          1.287153841165     1.380755776431     0.528005058453     1.007825032070
           H          1.512157841165    -0.344017223569     0.699589058453     1.007825032070
           H          0.404106841165     1.058372776431    -1.787119941547     1.007825032070
           H          1.984779841165     0.330474776431    -1.636288941547     1.007825032070
           H          0.556613841165    -0.685650223569    -1.612805941547     1.007825032070

  Running in c1 symmetry.

  Rotational constants: A =      0.45928  B =      0.18089  C =      0.14644 [cm^-1]
  Rotational constants: A =  13768.84909  B =   5423.04912  C =   4390.27607 [MHz]
  Nuclear repulsion =  133.879308679211988

  Charge       = 0
  Multiplicity = 1
  Electrons    = 34
  Nalpha       = 17
  Nbeta        = 17

  ==> Algorithm <==

  SCF Algorithm Type is DF.
  DIIS enabled.
  MOM disabled.
  Fractional occupation disabled.
  Guess Type is CORE.
  Energy threshold   = 1.00e-06
  Density threshold  = 1.00e-06
  Integral threshold = 0.00e+00

  ==> Primary Basis <==

  Basis Set: 6-31G*
    Number of shells: 40
    Number of basis function: 76
    Number of Cartesian functions: 76
    Spherical Harmonics?: false
    Max angular momentum: 2

  ==> Pre-Iterations <==

   -------------------------------------------------------
    Irrep   Nso     Nmo     Nalpha   Nbeta   Ndocc  Nsocc
   -------------------------------------------------------
     A         76      76       0       0       0       0
   -------------------------------------------------------
    Total      76      76      17      17      17       0
   -------------------------------------------------------

 OEINTS: Overlap, kinetic, potential, dipole, and quadrupole integrals
         stored in file 35.

  ==> Integral Setup <==

  ==> DFJK: Density-Fitted J/K Matrices <==

    J tasked:                  Yes
    K tasked:                  Yes
    wK tasked:                  No
    OpenMP threads:              1
    Integrals threads:           1
    Memory (MB):              1430
    Algorithm:                Core
    Integral Cache:           NONE
    Schwarz Cutoff:          1E-12
    Fitting Condition:       1E-12

   => Auxiliary Basis Set <=

  Basis Set: 
    Number of shells: 168
    Number of basis function: 524
    Number of Cartesian functions: 524
    Spherical Harmonics?: false
    Max angular momentum: 3

  Minimum eigenvalue in the overlap matrix is 4.9153631706E-03.
  Using Symmetric Orthogonalization.
  SCF Guess: Core (One-Electron) Hamiltonian.

  ==> Iterations <==

                           Total Energy        Delta E     RMS |[F,P]|

   @DF-RHF iter   1:  -155.94542905883173   -1.55945e+02   8.74121e-02 
   @DF-RHF iter   2:  -123.43576908604769    3.25097e+01   7.84450e-02 DIIS
   @DF-RHF iter   3:  -166.73792500877687   -4.33022e+01   6.19650e-02 DIIS
   @DF-RHF iter   4:  -192.16175286097547   -2.54238e+01   1.82401e-02 DIIS
   @DF-RHF iter   5:  -193.07535369006513   -9.13601e-01   3.11549e-03 DIIS
   @DF-RHF iter   6:  -193.10366879387988   -2.83151e-02   8.05590e-04 DIIS
   @DF-RHF iter   7:  -193.10575699517943   -2.08820e-03   3.09509e-04 DIIS
   @DF-RHF iter   8:  -193.10613541837807   -3.78423e-04   8.43651e-05 DIIS
   @DF-RHF iter   9:  -193.10616631304225   -3.08947e-05   2.93180e-05 DIIS
   @DF-RHF iter  10:  -193.10616966149212   -3.34845e-06   8.99324e-06 DIIS
   @DF-RHF iter  11:  -193.10617012618530   -4.64693e-07   2.05006e-06 DIIS
   @DF-RHF iter  12:  -193.10617015541794   -2.92326e-08   4.78887e-07 DIIS

  ==> Post-Iterations <==

    Orbital Energies (a.u.)
    -----------------------

    Doubly Occupied:                                                      

       1A    -20.551049     2A    -11.267162     3A    -11.226975  
       4A    -11.219696     5A     -1.359679     6A     -1.054137  
       7A     -0.929515     8A     -0.817587     9A     -0.666193  
      10A     -0.648242    11A     -0.635298    12A     -0.575359  
      13A     -0.543048    14A     -0.511867    15A     -0.494917  
      16A     -0.465000    17A     -0.431692  

    Virtual:                                                              

      18A      0.217218    19A      0.257402    20A      0.287450  
      21A      0.297479    22A      0.314129    23A      0.319387  
      24A      0.347030    25A      0.364673    26A      0.385122  
      27A      0.409157    28A      0.472348    29A      0.713622  
      30A      0.723399    31A      0.765323    32A      0.778140  
      33A      0.822118    34A      0.907463    35A      0.937575  
      36A      0.964324    37A      1.046436    38A      1.106075  
      39A      1.137107    40A      1.145461    41A      1.152079  
      42A      1.190631    43A      1.202953    44A      1.209680  
      45A      1.233100    46A      1.245879    47A      1.292064  
      48A      1.349421    49A      1.456040    50A      1.570046  
      51A      1.684283    52A      1.704942    53A      1.755693  
      54A      1.886688    55A      1.980679    56A      2.037065  
      57A      2.108492    58A      2.177052    59A      2.278895  
      60A      2.309421    61A      2.355417    62A      2.455458  
      63A      2.551484    64A      2.584800    65A      2.680710  
      66A      2.696591    67A      2.739312    68A      2.772426  
      69A      2.824951    70A      2.997044    71A      3.053774  
      72A      3.217648    73A      4.199481    74A      4.584307  
      75A      4.731269    76A      4.908098  

    Final Occupation by Irrep:
              A 
    DOCC [    17 ]

  Energy converged.

  @DF-RHF Final Energy:  -193.10617015541794

   => Energetics <=

    Nuclear Repulsion Energy =            133.8793086792119880
    One-Electron Energy =                -527.1761476736853638
    Two-Electron Energy =                 200.1906688390556610
    DFT Exchange-Correlation Energy =       0.0000000000000000
    Empirical Dispersion Energy =           0.0000000000000000
    PCM Polarization Energy =               0.0000000000000000
    EFP Energy =                            0.0000000000000000
    Total Energy =                       -193.1061701554177148

    Alert: EFP and PCM quantities not currently incorporated into SCF psivars.

Properties will be evaluated at   0.000000,   0.000000,   0.000000 Bohr
  ==> Properties <==


Properties computed using the SCF density matrix

  Nuclear Dipole Moment: (a.u.)
     X:     3.3135      Y:     1.5684      Z:    -1.3794

  Electronic Dipole Moment: (a.u.)
     X:    -2.5290      Y:    -1.4442      Z:     1.3330

  Dipole Moment: (a.u.)
     X:     0.7845      Y:     0.1242      Z:    -0.0464     Total:     0.7956

  Dipole Moment: (Debye)
     X:     1.9941      Y:     0.3156      Z:    -0.1180     Total:     2.0223


  Saving occupied orbitals to File 180.

*** tstop() called on cx1-1-3-4.cx1.hpc.ic.ac.uk at Tue Jul  5 16:26:50 2016
Module time:
	user time   =       2.73 seconds =       0.05 minutes
	system time =       0.03 seconds =       0.00 minutes
	total time  =          3 seconds =       0.05 minutes
Total time:
	user time   =       2.73 seconds =       0.05 minutes
	system time =       0.03 seconds =       0.00 minutes
	total time  =          3 seconds =       0.05 minutes


Properties will be evaluated at   0.000000,   0.000000,   0.000000 Bohr

Properties computed using the  density matrix

  Nuclear Dipole Moment: (a.u.)
     X:     3.3135      Y:     1.5684      Z:    -1.3794

  Electronic Dipole Moment: (a.u.)
     X:    -2.5290      Y:    -1.4442      Z:     1.3330

  Dipole Moment: (a.u.)
     X:     0.7845      Y:     0.1242      Z:    -0.0464     Total:     0.7956

  Dipole Moment: (Debye)
     X:     1.9941      Y:     0.3156      Z:    -0.1180     Total:     2.0223

  Quadrupole Moment: (Debye Ang)
    XX:   -30.4237     YY:   -24.5591     ZZ:   -26.6187
    XY:    -2.0088     XZ:     0.5075     YZ:     1.0423

  Traceless Quadrupole Moment: (Debye Ang)
    XX:    -3.2232     YY:     2.6414     ZZ:     0.5818
    XY:    -2.0088     XZ:     0.5075     YZ:     1.0423

  Mulliken Charges: (a.u.)
   Center  Symbol    Alpha    Beta     Spin     Total
       1     H     0.27971  0.27971  0.00000  0.44059
       2     O     4.37503  4.37503  0.00000 -0.75007
       3     C     2.97808  2.97808  0.00000  0.04384
       4     C     3.18806  3.18806  0.00000 -0.37612
       5     H     0.42212  0.42212  0.00000  0.15576
       6     H     0.42579  0.42579  0.00000  0.14842
       7     C     3.23845  3.23845  0.00000 -0.47689
       8     H     0.41517  0.41517  0.00000  0.16967
       9     H     0.42086  0.42086  0.00000  0.15828
      10     H     0.41534  0.41534  0.00000  0.16931
      11     H     0.41625  0.41625  0.00000  0.16750
      12     H     0.42514  0.42514  0.00000  0.14972

   Total alpha = 17.00000, Total beta = 17.00000, Total charge =  0.00000


*** PSI4 exiting successfully. Buy a developer a beer!
