    -----------------------------------------------------------------------
          Psi4: An Open-Source Ab Initio Electronic Structure Package
                              Psi4 (no tag) Driver

                          Git: Rev {detached?}  

    J. M. Turney, A. C. Simmonett, R. M. Parrish, E. G. Hohenstein,
    F. A. Evangelista, J. T. Fermann, B. J. Mintz, L. A. Burns, J. J. Wilke,
    M. L. Abrams, N. J. Russ, M. L. Leininger, C. L. Janssen, E. T. Seidl,
    W. D. Allen, H. F. Schaefer, R. A. King, E. F. Valeev, C. D. Sherrill,
    and T. D. Crawford, WIREs Comput. Mol. Sci. 2, 556-565 (2012)
    (doi: 10.1002/wcms.93)

                         Additional Contributions by
    A. E. DePrince, M. Saitow, U. Bozkaya, A. Yu. Sokolov
    -----------------------------------------------------------------------


    Psi4 started on: Tue Jul  5 16:31:13 2016

    Process ID:  29354
    PSI4DATADIR: /export131/home/mjharvey/miniconda3/share
    Memory level set to 256.000 MB

  ==> Input File <==

--------------------------------------------------------------------------
set {
	reference rhf
	basis 6-31G*
}


set_num_threads( 1 )
memory 2 gb

molecule MOL {
0 1

O	 -1.276010	 1.052711	 -0.768302
C	 -1.204840	 0.067374	 -0.106123
C	 -2.388195	 -0.672128	 0.458071
O	 -0.067104	 -0.527208	 0.221609
H	 -2.388023	 -1.694060	 0.097175
H	 -3.300579	 -0.174919	 0.164318
H	 -2.315377	 -0.706351	 1.539059
C	 1.170111	 0.034140	 -0.238951
C	 1.633373	 0.977623	 0.856866
C	 0.952867	 0.731479	 -1.572806
H	 1.876391	 -0.773970	 -0.359922
H	 1.760480	 0.444845	 1.792408
H	 2.583291	 1.426874	 0.586383
H	 0.909973	 1.771122	 1.010831
H	 1.880644	 1.178313	 -1.915712
H	 0.619314	 0.027297	 -2.324369
H	 0.211134	 1.517570	 -1.473294

	symmetry c1
}
set optking {
	frozen_dihedral = ("
		8 4 2 1
	")
}

ee = energy('scf')
oeprop('DIPOLE', 'QUADRUPOLE', 'MULLIKEN_CHARGES')
f=open( 'psi4out.xyz', 'w' )
f.write( "17  " )
f.write( str(ee) + "\n" )
f.write( MOL.save_string_xyz() )
f.close()
--------------------------------------------------------------------------

  Memory set to   2.000 GiB by Python script.

*** tstart() called on cx1-1-3-4.cx1.hpc.ic.ac.uk
*** at Tue Jul  5 16:31:13 2016


         ---------------------------------------------------------
                                   SCF
            by Justin Turney, Rob Parrish, and Andy Simmonett
                              RHF Reference
                        1 Threads,   2000 MiB Core
         ---------------------------------------------------------

  ==> Geometry <==

    Molecular point group: c1
    Full point group: C1

    Geometry (in Angstrom), charge = 0, multiplicity = 1:

       Center              X                  Y                   Z               Mass       
    ------------   -----------------  -----------------  -----------------  -----------------
           O         -1.102874801356     0.806722649243    -0.603023517279    15.994914619560
           C         -1.031704801356    -0.178614350757     0.059155482721    12.000000000000
           C         -2.215059801356    -0.918116350757     0.623349482721    12.000000000000
           O          0.106031198644    -0.773196350757     0.386887482721    15.994914619560
           H         -2.214887801356    -1.940048350757     0.262453482721     1.007825032070
           H         -3.127443801356    -0.420907350757     0.329596482721     1.007825032070
           H         -2.142241801356    -0.952339350757     1.704337482721     1.007825032070
           C          1.343246198644    -0.211848350757    -0.073672517279    12.000000000000
           C          1.806508198644     0.731634649243     1.022144482721    12.000000000000
           C          1.126002198644     0.485490649243    -1.407527517279    12.000000000000
           H          2.049526198644    -1.019958350757    -0.194643517279     1.007825032070
           H          1.933615198644     0.198856649243     1.957686482721     1.007825032070
           H          2.756426198644     1.180885649243     0.751661482721     1.007825032070
           H          1.083108198644     1.525133649243     1.176109482721     1.007825032070
           H          2.053779198644     0.932324649243    -1.750433517279     1.007825032070
           H          0.792449198644    -0.218691350757    -2.159090517279     1.007825032070
           H          0.384269198644     1.271581649243    -1.308015517279     1.007825032070

  Running in c1 symmetry.

  Rotational constants: A =      0.15615  B =      0.06656  C =      0.05683 [cm^-1]
  Rotational constants: A =   4681.39406  B =   1995.42601  C =   1703.75970 [MHz]
  Nuclear repulsion =  332.316691673028345

  Charge       = 0
  Multiplicity = 1
  Electrons    = 56
  Nalpha       = 28
  Nbeta        = 28

  ==> Algorithm <==

  SCF Algorithm Type is DF.
  DIIS enabled.
  MOM disabled.
  Fractional occupation disabled.
  Guess Type is CORE.
  Energy threshold   = 1.00e-06
  Density threshold  = 1.00e-06
  Integral threshold = 0.00e+00

  ==> Primary Basis <==

  Basis Set: 6-31G*
    Number of shells: 62
    Number of basis function: 125
    Number of Cartesian functions: 125
    Spherical Harmonics?: false
    Max angular momentum: 2

  ==> Pre-Iterations <==

   -------------------------------------------------------
    Irrep   Nso     Nmo     Nalpha   Nbeta   Ndocc  Nsocc
   -------------------------------------------------------
     A        125     125       0       0       0       0
   -------------------------------------------------------
    Total     125     125      28      28      28       0
   -------------------------------------------------------

 OEINTS: Overlap, kinetic, potential, dipole, and quadrupole integrals
         stored in file 35.

  ==> Integral Setup <==

  ==> DFJK: Density-Fitted J/K Matrices <==

    J tasked:                  Yes
    K tasked:                  Yes
    wK tasked:                  No
    OpenMP threads:              1
    Integrals threads:           1
    Memory (MB):              1430
    Algorithm:                Core
    Integral Cache:           NONE
    Schwarz Cutoff:          1E-12
    Fitting Condition:       1E-12

   => Auxiliary Basis Set <=

  Basis Set: 
    Number of shells: 258
    Number of basis function: 817
    Number of Cartesian functions: 817
    Spherical Harmonics?: false
    Max angular momentum: 3

  Minimum eigenvalue in the overlap matrix is 3.6609820072E-03.
  Using Symmetric Orthogonalization.
  SCF Guess: Core (One-Electron) Hamiltonian.

  ==> Iterations <==

                           Total Energy        Delta E     RMS |[F,P]|

   @DF-RHF iter   1:  -251.18828736921580   -2.51188e+02   7.92910e-02 
   @DF-RHF iter   2:  -260.47786833329269   -9.28958e+00   5.53428e-02 DIIS
   @DF-RHF iter   3:  -305.82641379361064   -4.53485e+01   5.58760e-02 DIIS
   @DF-RHF iter   4:  -338.14890178300777   -3.23225e+01   2.51109e-02 DIIS
   @DF-RHF iter   5:  -343.61893213888004   -5.47003e+00   1.15479e-02 DIIS
   @DF-RHF iter   6:  -344.73203594479855   -1.11310e+00   4.25598e-03 DIIS
   @DF-RHF iter   7:  -344.86443557171822   -1.32400e-01   1.30089e-03 DIIS
   @DF-RHF iter   8:  -344.87829744440648   -1.38619e-02   4.76808e-04 DIIS
   @DF-RHF iter   9:  -344.88024288592328   -1.94544e-03   1.07267e-04 DIIS
   @DF-RHF iter  10:  -344.88045252935490   -2.09643e-04   4.60571e-05 DIIS
   @DF-RHF iter  11:  -344.88048722220401   -3.46928e-05   1.75992e-05 DIIS
   @DF-RHF iter  12:  -344.88049351411803   -6.29191e-06   7.73684e-06 DIIS
   @DF-RHF iter  13:  -344.88049459358945   -1.07947e-06   1.88388e-06 DIIS
   @DF-RHF iter  14:  -344.88049467327698   -7.96875e-08   5.86073e-07 DIIS

  ==> Post-Iterations <==

    Orbital Energies (a.u.)
    -----------------------

    Doubly Occupied:                                                      

       1A    -20.600209     2A    -20.540729     3A    -11.380161  
       4A    -11.289806     5A    -11.233991     6A    -11.215184  
       7A    -11.189357     8A     -1.471261     9A     -1.367153  
      10A     -1.075888    11A     -1.003453    12A     -0.939667  
      13A     -0.860612    14A     -0.750341    15A     -0.700642  
      16A     -0.673484    17A     -0.664165    18A     -0.611564  
      19A     -0.584057    20A     -0.580690    21A     -0.570405  
      22A     -0.547658    23A     -0.526237    24A     -0.518676  
      25A     -0.505278    26A     -0.479562    27A     -0.442224  
      28A     -0.405277  

    Virtual:                                                              

      29A      0.194399    30A      0.240231    31A      0.261213  
      32A      0.287223    33A      0.293844    34A      0.309119  
      35A      0.315901    36A      0.329045    37A      0.331366  
      38A      0.357014    39A      0.357731    40A      0.372465  
      41A      0.404565    42A      0.420439    43A      0.462036  
      44A      0.508685    45A      0.564584    46A      0.700432  
      47A      0.710383    48A      0.730009    49A      0.754583  
      50A      0.773091    51A      0.796787    52A      0.812832  
      53A      0.845647    54A      0.887885    55A      0.918400  
      56A      0.955220    57A      0.961719    58A      0.972760  
      59A      1.006123    60A      1.029589    61A      1.083200  
      62A      1.129305    63A      1.133829    64A      1.159003  
      65A      1.168826    66A      1.176157    67A      1.185304  
      68A      1.201524    69A      1.213377    70A      1.228015  
      71A      1.245723    72A      1.279592    73A      1.290565  
      74A      1.303721    75A      1.372534    76A      1.429908  
      77A      1.457531    78A      1.546496    79A      1.593027  
      80A      1.651376    81A      1.710548    82A      1.743221  
      83A      1.792295    84A      1.825748    85A      1.872319  
      86A      1.944106    87A      1.952094    88A      2.037507  
      89A      2.077791    90A      2.106156    91A      2.133964  
      92A      2.169797    93A      2.207974    94A      2.225461  
      95A      2.252433    96A      2.295345    97A      2.340104  
      98A      2.374609    99A      2.413517   100A      2.460145  
     101A      2.517604   102A      2.565682   103A      2.569329  
     104A      2.594559   105A      2.612986   106A      2.661246  
     107A      2.734766   108A      2.790712   109A      2.798736  
     110A      2.854957   111A      2.890035   112A      3.004889  
     113A      3.043716   114A      3.105508   115A      3.189434  
     116A      3.375417   117A      3.420770   118A      3.560935  
     119A      4.470562   120A      4.535192   121A      4.628564  
     122A      4.688062   123A      4.766180   124A      4.865184  
     125A      5.001519  

    Final Occupation by Irrep:
              A 
    DOCC [    28 ]

  Energy converged.

  @DF-RHF Final Energy:  -344.88049467327698

   => Energetics <=

    Nuclear Repulsion Energy =            332.3166916730283447
    One-Electron Energy =               -1128.9388758236379999
    Two-Electron Energy =                 451.7416894773322724
    DFT Exchange-Correlation Energy =       0.0000000000000000
    Empirical Dispersion Energy =           0.0000000000000000
    PCM Polarization Energy =               0.0000000000000000
    EFP Energy =                            0.0000000000000000
    Total Energy =                       -344.8804946732773828

    Alert: EFP and PCM quantities not currently incorporated into SCF psivars.

Properties will be evaluated at   0.000000,   0.000000,   0.000000 Bohr
  ==> Properties <==


Properties computed using the SCF density matrix

  Nuclear Dipole Moment: (a.u.)
     X:     3.3407      Y:     0.5222      Z:     0.7205

  Electronic Dipole Moment: (a.u.)
     X:    -3.1673      Y:    -1.0469      Z:    -0.2919

  Dipole Moment: (a.u.)
     X:     0.1733      Y:    -0.5247      Z:     0.4286     Total:     0.6993

  Dipole Moment: (Debye)
     X:     0.4405      Y:    -1.3336      Z:     1.0894     Total:     1.7775


  Saving occupied orbitals to File 180.

*** tstop() called on cx1-1-3-4.cx1.hpc.ic.ac.uk at Tue Jul  5 16:31:24 2016
Module time:
	user time   =       9.83 seconds =       0.16 minutes
	system time =       0.09 seconds =       0.00 minutes
	total time  =         11 seconds =       0.18 minutes
Total time:
	user time   =       9.83 seconds =       0.16 minutes
	system time =       0.09 seconds =       0.00 minutes
	total time  =         11 seconds =       0.18 minutes


Properties will be evaluated at   0.000000,   0.000000,   0.000000 Bohr

Properties computed using the  density matrix

  Nuclear Dipole Moment: (a.u.)
     X:     3.3407      Y:     0.5222      Z:     0.7205

  Electronic Dipole Moment: (a.u.)
     X:    -3.1673      Y:    -1.0469      Z:    -0.2919

  Dipole Moment: (a.u.)
     X:     0.1733      Y:    -0.5247      Z:     0.4286     Total:     0.6993

  Dipole Moment: (Debye)
     X:     0.4405      Y:    -1.3336      Z:     1.0894     Total:     1.7775

  Quadrupole Moment: (Debye Ang)
    XX:   -39.7251     YY:   -44.9279     ZZ:   -44.0523
    XY:     3.1157     XZ:    -2.0299     YZ:     1.8774

  Traceless Quadrupole Moment: (Debye Ang)
    XX:     3.1767     YY:    -2.0261     ZZ:    -1.1505
    XY:     3.1157     XZ:    -2.0299     YZ:     1.8774

  Mulliken Charges: (a.u.)
   Center  Symbol    Alpha    Beta     Spin     Total
       1     O     4.29184  4.29184  0.00000 -0.58368
       2     C     2.60858  2.60858  0.00000  0.78284
       3     C     3.28101  3.28101  0.00000 -0.56203
       4     O     4.31590  4.31590  0.00000 -0.63179
       5     H     0.40000  0.40000  0.00000  0.19999
       6     H     0.39731  0.39731  0.00000  0.20537
       7     H     0.40019  0.40019  0.00000  0.19963
       8     C     2.92631  2.92631  0.00000  0.14738
       9     C     3.24444  3.24444  0.00000 -0.48889
      10     C     3.27153  3.27153  0.00000 -0.54307
      11     H     0.40789  0.40789  0.00000  0.18423
      12     H     0.41383  0.41383  0.00000  0.17235
      13     H     0.41841  0.41841  0.00000  0.16319
      14     H     0.41113  0.41113  0.00000  0.17774
      15     H     0.42707  0.42707  0.00000  0.14585
      16     H     0.42023  0.42023  0.00000  0.15955
      17     H     0.36433  0.36433  0.00000  0.27134

   Total alpha = 28.00000, Total beta = 28.00000, Total charge = -0.00000


*** PSI4 exiting successfully. Buy a developer a beer!
