    -----------------------------------------------------------------------
          Psi4: An Open-Source Ab Initio Electronic Structure Package
                              Psi4 (no tag) Driver

                          Git: Rev {detached?}  

    J. M. Turney, A. C. Simmonett, R. M. Parrish, E. G. Hohenstein,
    F. A. Evangelista, J. T. Fermann, B. J. Mintz, L. A. Burns, J. J. Wilke,
    M. L. Abrams, N. J. Russ, M. L. Leininger, C. L. Janssen, E. T. Seidl,
    W. D. Allen, H. F. Schaefer, R. A. King, E. F. Valeev, C. D. Sherrill,
    and T. D. Crawford, WIREs Comput. Mol. Sci. 2, 556-565 (2012)
    (doi: 10.1002/wcms.93)

                         Additional Contributions by
    A. E. DePrince, M. Saitow, U. Bozkaya, A. Yu. Sokolov
    -----------------------------------------------------------------------


    Psi4 started on: Tue Jul  5 16:29:55 2016

    Process ID:  32402
    PSI4DATADIR: /export131/home/mjharvey/miniconda3/share
    Memory level set to 256.000 MB

  ==> Input File <==

--------------------------------------------------------------------------
set {
	reference rhf
	basis 6-31G*
}


set_num_threads( 1 )
memory 2 gb

molecule MOL {
0 1

H	 3.301756	 -0.418749	 0.016088
C	 2.241448	 -0.239425	 0.012629
C	 1.434719	 -0.889273	 -0.913516
C	 1.688606	 0.637495	 0.930973
H	 1.871313	 -1.568501	 -1.623137
C	 0.072653	 -0.661268	 -0.920725
H	 2.315793	 1.138329	 1.645847
C	 0.322016	 0.865381	 0.922712
H	 -0.568075	 -1.153411	 -1.628124
C	 -0.488460	 0.219100	 0.000000
H	 -0.113633	 1.545921	 1.634065
C	 -1.949954	 0.470334	 0.000000
O	 -2.781584	 -0.381627	 0.000000
H	 -2.238022	 1.526388	 0.000000

	symmetry c1
}
ee = energy('scf')
oeprop('DIPOLE', 'QUADRUPOLE', 'MULLIKEN_CHARGES')
f=open( 'psi4out.xyz', 'w' )
f.write( "14  " )
f.write( str(ee) + "\n" )
f.write( MOL.save_string_xyz() )
f.close()
--------------------------------------------------------------------------

  Memory set to   2.000 GiB by Python script.

*** tstart() called on cx1-3-6-1.cx1.hpc.ic.ac.uk
*** at Tue Jul  5 16:29:55 2016


         ---------------------------------------------------------
                                   SCF
            by Justin Turney, Rob Parrish, and Andy Simmonett
                              RHF Reference
                        1 Threads,   2000 MiB Core
         ---------------------------------------------------------

  ==> Geometry <==

    Molecular point group: c1
    Full point group: C1

    Geometry (in Angstrom), charge = 0, multiplicity = 1:

       Center              X                  Y                   Z               Mass       
    ------------   -----------------  -----------------  -----------------  -----------------
           H          3.302076411026    -0.416885456035     0.012033327019     1.007825032070
           C          2.241768411026    -0.237561456035     0.008574327019    12.000000000000
           C          1.435039411026    -0.887409456035    -0.917570672981    12.000000000000
           C          1.688926411026     0.639358543965     0.926918327019    12.000000000000
           H          1.871633411026    -1.566637456035    -1.627191672981     1.007825032070
           C          0.072973411026    -0.659404456035    -0.924779672981    12.000000000000
           H          2.316113411026     1.140192543965     1.641792327019     1.007825032070
           C          0.322336411026     0.867244543965     0.918657327019    12.000000000000
           H         -0.567754588974    -1.151547456035    -1.632178672981     1.007825032070
           C         -0.488139588974     0.220963543965    -0.004054672981    12.000000000000
           H         -0.113312588974     1.547784543965     1.630010327019     1.007825032070
           C         -1.949633588974     0.472197543965    -0.004054672981    12.000000000000
           O         -2.781263588974    -0.379763456035    -0.004054672981    15.994914619560
           H         -2.237701588974     1.528251543965    -0.004054672981     1.007825032070

  Running in c1 symmetry.

  Rotational constants: A =      0.17534  B =      0.05210  C =      0.04118 [cm^-1]
  Rotational constants: A =   5256.41316  B =   1561.87259  C =   1234.62069 [MHz]
  Nuclear repulsion =  322.863713276217254

  Charge       = 0
  Multiplicity = 1
  Electrons    = 56
  Nalpha       = 28
  Nbeta        = 28

  ==> Algorithm <==

  SCF Algorithm Type is DF.
  DIIS enabled.
  MOM disabled.
  Fractional occupation disabled.
  Guess Type is CORE.
  Energy threshold   = 1.00e-06
  Density threshold  = 1.00e-06
  Integral threshold = 0.00e+00

  ==> Primary Basis <==

  Basis Set: 6-31G*
    Number of shells: 60
    Number of basis function: 132
    Number of Cartesian functions: 132
    Spherical Harmonics?: false
    Max angular momentum: 2

  ==> Pre-Iterations <==

   -------------------------------------------------------
    Irrep   Nso     Nmo     Nalpha   Nbeta   Ndocc  Nsocc
   -------------------------------------------------------
     A        132     132       0       0       0       0
   -------------------------------------------------------
    Total     132     132      28      28      28       0
   -------------------------------------------------------

 OEINTS: Overlap, kinetic, potential, dipole, and quadrupole integrals
         stored in file 35.

  ==> Integral Setup <==

  ==> DFJK: Density-Fitted J/K Matrices <==

    J tasked:                  Yes
    K tasked:                  Yes
    wK tasked:                  No
    OpenMP threads:              1
    Integrals threads:           1
    Memory (MB):              1430
    Algorithm:                Core
    Integral Cache:           NONE
    Schwarz Cutoff:          1E-12
    Fitting Condition:       1E-12

   => Auxiliary Basis Set <=

  Basis Set: 
    Number of shells: 246
    Number of basis function: 798
    Number of Cartesian functions: 798
    Spherical Harmonics?: false
    Max angular momentum: 3

  Minimum eigenvalue in the overlap matrix is 4.3947402219E-04.
  Using Symmetric Orthogonalization.
  SCF Guess: Core (One-Electron) Hamiltonian.

  ==> Iterations <==

                           Total Energy        Delta E     RMS |[F,P]|

   @DF-RHF iter   1:  -283.81221908688383   -2.83812e+02   6.27778e-02 
   @DF-RHF iter   2:  -252.83019370340719    3.09820e+01   5.66738e-02 DIIS
   @DF-RHF iter   3:  -261.35247113593311   -8.52228e+00   6.68710e-02 DIIS
   @DF-RHF iter   4:  -338.83965558289117   -7.74872e+01   1.77522e-02 DIIS
   @DF-RHF iter   5:  -342.66081733596025   -3.82116e+00   9.62886e-03 DIIS
   @DF-RHF iter   6:  -343.35829323531470   -6.97476e-01   2.46040e-03 DIIS
   @DF-RHF iter   7:  -343.41437346211058   -5.60802e-02   9.07393e-04 DIIS
   @DF-RHF iter   8:  -343.42326554743647   -8.89209e-03   3.31453e-04 DIIS
   @DF-RHF iter   9:  -343.42461395685211   -1.34841e-03   9.79346e-05 DIIS
   @DF-RHF iter  10:  -343.42475065440306   -1.36698e-04   3.20739e-05 DIIS
   @DF-RHF iter  11:  -343.42478001029292   -2.93559e-05   1.41870e-05 DIIS
   @DF-RHF iter  12:  -343.42478377907059   -3.76878e-06   5.45847e-06 DIIS
   @DF-RHF iter  13:  -343.42478457089476   -7.91824e-07   2.41480e-06 DIIS
   @DF-RHF iter  14:  -343.42478472311154   -1.52217e-07   8.86326e-07 DIIS

  ==> Post-Iterations <==

    Orbital Energies (a.u.)
    -----------------------

    Doubly Occupied:                                                      

       1A    -20.568103     2A    -11.333260     3A    -11.251232  
       4A    -11.248849     5A    -11.247366     6A    -11.247107  
       7A    -11.244788     8A    -11.243439     9A     -1.406369  
      10A     -1.170378    11A     -1.046851    12A     -1.030855  
      13A     -0.889556    14A     -0.842668    15A     -0.792718  
      16A     -0.720465    17A     -0.677369    18A     -0.652719  
      19A     -0.630752    20A     -0.616979    21A     -0.602647  
      22A     -0.540297    23A     -0.527608    24A     -0.508860  
      25A     -0.501678    26A     -0.422717    27A     -0.348215  
      28A     -0.346402  

    Virtual:                                                              

      29A      0.102769    30A      0.132776    31A      0.188346  
      32A      0.232891    33A      0.272922    34A      0.295128  
      35A      0.299542    36A      0.325722    37A      0.328211  
      38A      0.363677    39A      0.429662    40A      0.440344  
      41A      0.471355    42A      0.483683    43A      0.509259  
      44A      0.563066    45A      0.660136    46A      0.727081  
      47A      0.733959    48A      0.746037    49A      0.753326  
      50A      0.773724    51A      0.806150    52A      0.812819  
      53A      0.817879    54A      0.828405    55A      0.833895  
      56A      0.865045    57A      0.877271    58A      0.899481  
      59A      0.928013    60A      0.970715    61A      1.003529  
      62A      1.038699    63A      1.084043    64A      1.099174  
      65A      1.107629    66A      1.108601    67A      1.122298  
      68A      1.144504    69A      1.153216    70A      1.164204  
      71A      1.201275    72A      1.216491    73A      1.267065  
      74A      1.277478    75A      1.334308    76A      1.354063  
      77A      1.371182    78A      1.402293    79A      1.432771  
      80A      1.458828    81A      1.498657    82A      1.657022  
      83A      1.680471    84A      1.696516    85A      1.740897  
      86A      1.761585    87A      1.777512    88A      1.781208  
      89A      1.821750    90A      1.875972    91A      1.998662  
      92A      2.044863    93A      2.091775    94A      2.104333  
      95A      2.160305    96A      2.174643    97A      2.233257  
      98A      2.281027    99A      2.308191   100A      2.342849  
     101A      2.378154   102A      2.395493   103A      2.455977  
     104A      2.459822   105A      2.470787   106A      2.525751  
     107A      2.599039   108A      2.620897   109A      2.635162  
     110A      2.684109   111A      2.809752   112A      2.850108  
     113A      2.911340   114A      2.957201   115A      3.009033  
     116A      3.033781   117A      3.090865   118A      3.095300  
     119A      3.114285   120A      3.187401   121A      3.299453  
     122A      3.349102   123A      3.487855   124A      3.822279  
     125A      4.260710   126A      4.504936   127A      4.519325  
     128A      4.532804   129A      4.612636   130A      4.744525  
     131A      4.820403   132A      5.131870  

    Final Occupation by Irrep:
              A 
    DOCC [    28 ]

  Energy converged.

  @DF-RHF Final Energy:  -343.42478472311154

   => Energetics <=

    Nuclear Repulsion Energy =            322.8637132762172541
    One-Electron Energy =               -1105.2566499057079454
    Two-Electron Energy =                 438.9681519063796031
    DFT Exchange-Correlation Energy =       0.0000000000000000
    Empirical Dispersion Energy =           0.0000000000000000
    PCM Polarization Energy =               0.0000000000000000
    EFP Energy =                            0.0000000000000000
    Total Energy =                       -343.4247847231110882

    Alert: EFP and PCM quantities not currently incorporated into SCF psivars.

Properties will be evaluated at   0.000000,   0.000000,   0.000000 Bohr
  ==> Properties <==


Properties computed using the SCF density matrix

  Nuclear Dipole Moment: (a.u.)
     X:     4.2719      Y:     1.0117      Z:     0.0191

  Electronic Dipole Moment: (a.u.)
     X:    -3.1320      Y:    -0.3799      Z:    -0.0551

  Dipole Moment: (a.u.)
     X:     1.1399      Y:     0.6318      Z:    -0.0360     Total:     1.3038

  Dipole Moment: (Debye)
     X:     2.8973      Y:     1.6059      Z:    -0.0915     Total:     3.3139


  Saving occupied orbitals to File 180.

*** tstop() called on cx1-3-6-1.cx1.hpc.ic.ac.uk at Tue Jul  5 16:30:07 2016
Module time:
	user time   =      11.22 seconds =       0.19 minutes
	system time =       0.07 seconds =       0.00 minutes
	total time  =         12 seconds =       0.20 minutes
Total time:
	user time   =      11.22 seconds =       0.19 minutes
	system time =       0.07 seconds =       0.00 minutes
	total time  =         12 seconds =       0.20 minutes


Properties will be evaluated at   0.000000,   0.000000,   0.000000 Bohr

Properties computed using the  density matrix

  Nuclear Dipole Moment: (a.u.)
     X:     4.2719      Y:     1.0117      Z:     0.0191

  Electronic Dipole Moment: (a.u.)
     X:    -3.1320      Y:    -0.3799      Z:    -0.0551

  Dipole Moment: (a.u.)
     X:     1.1399      Y:     0.6318      Z:    -0.0360     Total:     1.3038

  Dipole Moment: (Debye)
     X:     2.8973      Y:     1.6059      Z:    -0.0915     Total:     3.3139

  Quadrupole Moment: (Debye Ang)
    XX:   -50.7522     YY:   -45.2518     ZZ:   -43.7462
    XY:    -5.1688     XZ:     0.8157     YZ:     4.3448

  Traceless Quadrupole Moment: (Debye Ang)
    XX:    -4.1688     YY:     1.3316     ZZ:     2.8372
    XY:    -5.1688     XZ:     0.8157     YZ:     4.3448

  Mulliken Charges: (a.u.)
   Center  Symbol    Alpha    Beta     Spin     Total
       1     H     0.39537  0.39537  0.00000  0.20925
       2     C     3.09554  3.09554  0.00000 -0.19108
       3     C     3.10121  3.10121  0.00000 -0.20241
       4     C     3.10043  3.10043  0.00000 -0.20086
       5     H     0.39434  0.39434  0.00000  0.21132
       6     C     3.09437  3.09437  0.00000 -0.18874
       7     H     0.39466  0.39466  0.00000  0.21068
       8     C     3.10427  3.10427  0.00000 -0.20853
       9     H     0.38497  0.38497  0.00000  0.23007
      10     C     3.03751  3.03751  0.00000 -0.07503
      11     H     0.39346  0.39346  0.00000  0.21309
      12     C     2.84727  2.84727  0.00000  0.30547
      13     O     4.23245  4.23245  0.00000 -0.46489
      14     H     0.42417  0.42417  0.00000  0.15166

   Total alpha = 28.00000, Total beta = 28.00000, Total charge =  0.00000


*** PSI4 exiting successfully. Buy a developer a beer!
