    -----------------------------------------------------------------------
          Psi4: An Open-Source Ab Initio Electronic Structure Package
                              Psi4 (no tag) Driver

                          Git: Rev {detached?}  

    J. M. Turney, A. C. Simmonett, R. M. Parrish, E. G. Hohenstein,
    F. A. Evangelista, J. T. Fermann, B. J. Mintz, L. A. Burns, J. J. Wilke,
    M. L. Abrams, N. J. Russ, M. L. Leininger, C. L. Janssen, E. T. Seidl,
    W. D. Allen, H. F. Schaefer, R. A. King, E. F. Valeev, C. D. Sherrill,
    and T. D. Crawford, WIREs Comput. Mol. Sci. 2, 556-565 (2012)
    (doi: 10.1002/wcms.93)

                         Additional Contributions by
    A. E. DePrince, M. Saitow, U. Bozkaya, A. Yu. Sokolov
    -----------------------------------------------------------------------


    Psi4 started on: Tue Jul  5 16:35:02 2016

    Process ID:  17869
    PSI4DATADIR: /export131/home/mjharvey/miniconda3/share
    Memory level set to 256.000 MB

  ==> Input File <==

--------------------------------------------------------------------------
set {
	reference rhf
	basis 6-31G*
}


set_num_threads( 1 )
memory 2 gb

molecule MOL {
0 1

H	 -2.098997	 -0.674324	 -0.616650
O	 -2.035884	 -0.060112	 0.102722
C	 -0.955155	 0.788182	 -0.092531
C	 0.353668	 0.040312	 -0.004810
H	 -0.985057	 1.290372	 -1.054184
H	 -0.974469	 1.533190	 0.688632
F	 0.450238	 -0.598359	 1.155942
F	 0.435990	 -0.863039	 -0.968334
F	 1.397893	 0.837121	 -0.106002

	symmetry c1
}
set optking {
	frozen_dihedral = ("
		1 2 3 5
	")
}

ee = energy('scf')
oeprop('DIPOLE', 'QUADRUPOLE', 'MULLIKEN_CHARGES')
f=open( 'psi4out.xyz', 'w' )
f.write( "9  " )
f.write( str(ee) + "\n" )
f.write( MOL.save_string_xyz() )
f.close()
--------------------------------------------------------------------------

  Memory set to   2.000 GiB by Python script.

*** tstart() called on cx1-3-2-1.cx1.hpc.ic.ac.uk
*** at Tue Jul  5 16:35:02 2016


         ---------------------------------------------------------
                                   SCF
            by Justin Turney, Rob Parrish, and Andy Simmonett
                              RHF Reference
                        1 Threads,   2000 MiB Core
         ---------------------------------------------------------

  ==> Geometry <==

    Molecular point group: c1
    Full point group: C1

    Geometry (in Angstrom), charge = 0, multiplicity = 1:

       Center              X                  Y                   Z               Mass       
    ------------   -----------------  -----------------  -----------------  -----------------
           H         -2.094225008386    -0.667187284342    -0.627002927574     1.007825032070
           O         -2.031112008386    -0.052975284342     0.092369072426    15.994914619560
           C         -0.950383008386     0.795318715658    -0.102883927574    12.000000000000
           C          0.358439991614     0.047448715658    -0.015162927574    12.000000000000
           H         -0.980285008386     1.297508715658    -1.064536927574     1.007825032070
           H         -0.969697008386     1.540326715658     0.678279072426     1.007825032070
           F          0.455009991614    -0.591222284342     1.145589072426    18.998403224000
           F          0.440761991614    -0.855902284342    -0.978686927574    18.998403224000
           F          1.402664991614     0.844257715658    -0.116354927574    18.998403224000

  Running in c1 symmetry.

  Rotational constants: A =      0.18345  B =      0.09615  C =      0.09572 [cm^-1]
  Rotational constants: A =   5499.78898  B =   2882.55067  C =   2869.75568 [MHz]
  Nuclear repulsion =  277.242788114334303

  Charge       = 0
  Multiplicity = 1
  Electrons    = 50
  Nalpha       = 25
  Nbeta        = 25

  ==> Algorithm <==

  SCF Algorithm Type is DF.
  DIIS enabled.
  MOM disabled.
  Fractional occupation disabled.
  Guess Type is CORE.
  Energy threshold   = 1.00e-06
  Density threshold  = 1.00e-06
  Integral threshold = 0.00e+00

  ==> Primary Basis <==

  Basis Set: 6-31G*
    Number of shells: 42
    Number of basis function: 96
    Number of Cartesian functions: 96
    Spherical Harmonics?: false
    Max angular momentum: 2

  ==> Pre-Iterations <==

   -------------------------------------------------------
    Irrep   Nso     Nmo     Nalpha   Nbeta   Ndocc  Nsocc
   -------------------------------------------------------
     A         96      96       0       0       0       0
   -------------------------------------------------------
    Total      96      96      25      25      25       0
   -------------------------------------------------------

 OEINTS: Overlap, kinetic, potential, dipole, and quadrupole integrals
         stored in file 35.

  ==> Integral Setup <==

  ==> DFJK: Density-Fitted J/K Matrices <==

    J tasked:                  Yes
    K tasked:                  Yes
    wK tasked:                  No
    OpenMP threads:              1
    Integrals threads:           1
    Memory (MB):              1430
    Algorithm:                Core
    Integral Cache:           NONE
    Schwarz Cutoff:          1E-12
    Fitting Condition:       1E-12

   => Auxiliary Basis Set <=

  Basis Set: 
    Number of shells: 171
    Number of basis function: 561
    Number of Cartesian functions: 561
    Spherical Harmonics?: false
    Max angular momentum: 3

  Minimum eigenvalue in the overlap matrix is 1.9722158209E-03.
  Using Symmetric Orthogonalization.
  SCF Guess: Core (One-Electron) Hamiltonian.

  ==> Iterations <==

                           Total Energy        Delta E     RMS |[F,P]|

   @DF-RHF iter   1:  -400.06581548291581   -4.00066e+02   8.93433e-02 
   @DF-RHF iter   2:  -273.04721661058375    1.27019e+02   9.70234e-02 DIIS
   @DF-RHF iter   3:  -397.48780675566661   -1.24441e+02   6.46213e-02 DIIS
   @DF-RHF iter   4:  -447.27360836858111   -4.97858e+01   2.84283e-02 DIIS
   @DF-RHF iter   5:  -450.26728799906380   -2.99368e+00   1.08055e-02 DIIS
   @DF-RHF iter   6:  -450.57702456455161   -3.09737e-01   4.54647e-03 DIIS
   @DF-RHF iter   7:  -450.64713862199767   -7.01141e-02   1.65949e-03 DIIS
   @DF-RHF iter   8:  -450.66066107104734   -1.35224e-02   5.35550e-04 DIIS
   @DF-RHF iter   9:  -450.66214555162969   -1.48448e-03   1.32794e-04 DIIS
   @DF-RHF iter  10:  -450.66223271109186   -8.71595e-05   4.82065e-05 DIIS
   @DF-RHF iter  11:  -450.66224722036486   -1.45093e-05   1.22712e-05 DIIS
   @DF-RHF iter  12:  -450.66224855902260   -1.33866e-06   4.23618e-06 DIIS
   @DF-RHF iter  13:  -450.66224865455581   -9.55332e-08   1.33053e-06 DIIS
   @DF-RHF iter  14:  -450.66224866350660   -8.95079e-09   2.09270e-07 DIIS

  ==> Post-Iterations <==

    Orbital Energies (a.u.)
    -----------------------

    Doubly Occupied:                                                      

       1A    -26.346286     2A    -26.345484     3A    -26.333345  
       4A    -20.591102     5A    -11.499915     6A    -11.309801  
       7A     -1.740309     8A     -1.642585     9A     -1.631957  
      10A     -1.402902    11A     -1.048163    12A     -0.923577  
      13A     -0.830919    14A     -0.828101    15A     -0.805391  
      16A     -0.727545    17A     -0.711998    18A     -0.696525  
      19A     -0.666372    20A     -0.657002    21A     -0.641559  
      22A     -0.629155    23A     -0.612305    24A     -0.531712  
      25A     -0.480651  

    Virtual:                                                              

      26A      0.216147    27A      0.267408    28A      0.287774  
      29A      0.337611    30A      0.414779    31A      0.429598  
      32A      0.473342    33A      0.482902    34A      0.695594  
      35A      0.742589    36A      0.754537    37A      0.779881  
      38A      0.815008    39A      0.875488    40A      0.937937  
      41A      1.054059    42A      1.129968    43A      1.150232  
      44A      1.189974    45A      1.240724    46A      1.317562  
      47A      1.343631    48A      1.354077    49A      1.362808  
      50A      1.447790    51A      1.466007    52A      1.592846  
      53A      1.622929    54A      1.632646    55A      1.642419  
      56A      1.669832    57A      1.674299    58A      1.686895  
      59A      1.750599    60A      1.870846    61A      1.910805  
      62A      1.945869    63A      1.972900    64A      1.988503  
      65A      2.116077    66A      2.134675    67A      2.139322  
      68A      2.166264    69A      2.262569    70A      2.273452  
      71A      2.321509    72A      2.362452    73A      2.374542  
      74A      2.399667    75A      2.414165    76A      2.433255  
      77A      2.506920    78A      2.608895    79A      2.655670  
      80A      2.694323    81A      2.763659    82A      2.850199  
      83A      2.929918    84A      3.114263    85A      3.135748  
      86A      3.174337    87A      3.270761    88A      3.418158  
      89A      3.420091    90A      3.452370    91A      4.137590  
      92A      4.603877    93A      4.746942    94A      4.892834  
      95A      5.147182    96A      5.704231  

    Final Occupation by Irrep:
              A 
    DOCC [    25 ]

  Energy converged.

  @DF-RHF Final Energy:  -450.66224866350660

   => Energetics <=

    Nuclear Repulsion Energy =            277.2427881143343029
    One-Electron Energy =               -1176.5407654838259077
    Two-Electron Energy =                 448.6357287059851160
    DFT Exchange-Correlation Energy =       0.0000000000000000
    Empirical Dispersion Energy =           0.0000000000000000
    PCM Polarization Energy =               0.0000000000000000
    EFP Energy =                            0.0000000000000000
    Total Energy =                       -450.6622486635064888

    Alert: EFP and PCM quantities not currently incorporated into SCF psivars.

Properties will be evaluated at   0.000000,   0.000000,   0.000000 Bohr
  ==> Properties <==


Properties computed using the SCF density matrix

  Nuclear Dipole Moment: (a.u.)
     X:    -5.9693      Y:     2.6034      Z:    -0.9971

  Electronic Dipole Moment: (a.u.)
     X:     5.6644      Y:    -2.2453      Z:     0.3753

  Dipole Moment: (a.u.)
     X:    -0.3050      Y:     0.3581      Z:    -0.6219     Total:     0.7797

  Dipole Moment: (Debye)
     X:    -0.7752      Y:     0.9102      Z:    -1.5806     Total:     1.9818


  Saving occupied orbitals to File 180.

*** tstop() called on cx1-3-2-1.cx1.hpc.ic.ac.uk at Tue Jul  5 16:35:08 2016
Module time:
	user time   =       4.83 seconds =       0.08 minutes
	system time =       0.04 seconds =       0.00 minutes
	total time  =          6 seconds =       0.10 minutes
Total time:
	user time   =       4.83 seconds =       0.08 minutes
	system time =       0.04 seconds =       0.00 minutes
	total time  =          6 seconds =       0.10 minutes


Properties will be evaluated at   0.000000,   0.000000,   0.000000 Bohr

Properties computed using the  density matrix

  Nuclear Dipole Moment: (a.u.)
     X:    -5.9693      Y:     2.6034      Z:    -0.9971

  Electronic Dipole Moment: (a.u.)
     X:     5.6644      Y:    -2.2453      Z:     0.3753

  Dipole Moment: (a.u.)
     X:    -0.3050      Y:     0.3581      Z:    -0.6219     Total:     0.7797

  Dipole Moment: (Debye)
     X:    -0.7752      Y:     0.9102      Z:    -1.5806     Total:     1.9818

  Quadrupole Moment: (Debye Ang)
    XX:   -35.5506     YY:   -30.6214     ZZ:   -32.1910
    XY:     0.3921     XZ:     3.3322     YZ:     1.1190

  Traceless Quadrupole Moment: (Debye Ang)
    XX:    -2.7630     YY:     2.1663     ZZ:     0.5967
    XY:     0.3921     XZ:     3.3322     YZ:     1.1190

  Mulliken Charges: (a.u.)
   Center  Symbol    Alpha    Beta     Spin     Total
       1     H     0.27285  0.27285  0.00000  0.45430
       2     O     4.36032  4.36032  0.00000 -0.72064
       3     C     3.05163  3.05163  0.00000 -0.10326
       4     C     2.46629  2.46629  0.00000  1.06741
       5     H     0.41094  0.41094  0.00000  0.17811
       6     H     0.39571  0.39571  0.00000  0.20858
       7     F     4.68047  4.68047  0.00000 -0.36094
       8     F     4.68386  4.68386  0.00000 -0.36773
       9     F     4.67792  4.67792  0.00000 -0.35584

   Total alpha = 25.00000, Total beta = 25.00000, Total charge =  0.00000


*** PSI4 exiting successfully. Buy a developer a beer!
