    -----------------------------------------------------------------------
          Psi4: An Open-Source Ab Initio Electronic Structure Package
                              Psi4 (no tag) Driver

                          Git: Rev {detached?}  

    J. M. Turney, A. C. Simmonett, R. M. Parrish, E. G. Hohenstein,
    F. A. Evangelista, J. T. Fermann, B. J. Mintz, L. A. Burns, J. J. Wilke,
    M. L. Abrams, N. J. Russ, M. L. Leininger, C. L. Janssen, E. T. Seidl,
    W. D. Allen, H. F. Schaefer, R. A. King, E. F. Valeev, C. D. Sherrill,
    and T. D. Crawford, WIREs Comput. Mol. Sci. 2, 556-565 (2012)
    (doi: 10.1002/wcms.93)

                         Additional Contributions by
    A. E. DePrince, M. Saitow, U. Bozkaya, A. Yu. Sokolov
    -----------------------------------------------------------------------


    Psi4 started on: Tue Jul  5 16:33:02 2016

    Process ID:   4026
    PSI4DATADIR: /export131/home/mjharvey/miniconda3/share
    Memory level set to 256.000 MB

  ==> Input File <==

--------------------------------------------------------------------------
set {
	reference rhf
	basis 6-31G*
}


set_num_threads( 1 )
memory 2 gb

molecule MOL {
0 1

H	 -1.836216	 1.387520	 -0.000064
C	 -1.301823	 0.443321	 -0.000031
O	 -0.003969	 0.658512	 0.000451
O	 -1.829879	 -0.616434	 -0.000857
C	 0.438934	 1.997219	 0.221555
C	 0.045048	 2.811905	 -0.991482
H	 1.509996	 1.989953	 0.370187
H	 -0.021903	 2.372636	 1.124875
H	 0.509312	 2.416725	 -1.887766
H	 0.365206	 3.840684	 -0.863629
H	 -1.029991	 2.801357	 -1.129566

	symmetry c1
}
set optking {
	frozen_dihedral = ("
		7 5 3 2
	")
}

ee = energy('scf')
oeprop('DIPOLE', 'QUADRUPOLE', 'MULLIKEN_CHARGES')
f=open( 'psi4out.xyz', 'w' )
f.write( "11  " )
f.write( str(ee) + "\n" )
f.write( MOL.save_string_xyz() )
f.close()
--------------------------------------------------------------------------

  Memory set to   2.000 GiB by Python script.

*** tstart() called on cx1-3-6-1.cx1.hpc.ic.ac.uk
*** at Tue Jul  5 16:33:03 2016


         ---------------------------------------------------------
                                   SCF
            by Justin Turney, Rob Parrish, and Andy Simmonett
                              RHF Reference
                        1 Threads,   2000 MiB Core
         ---------------------------------------------------------

  ==> Geometry <==

    Molecular point group: c1
    Full point group: C1

    Geometry (in Angstrom), charge = 0, multiplicity = 1:

       Center              X                  Y                   Z               Mass       
    ------------   -----------------  -----------------  -----------------  -----------------
           H         -1.300619082568     0.325519065561     0.157298641403     1.007825032070
           C         -0.766226082568    -0.618679934439     0.157331641403    12.000000000000
           O          0.531627917432    -0.403488934439     0.157813641403    15.994914619560
           O         -1.294282082568    -1.678434934439     0.156505641403    15.994914619560
           C          0.974530917432     0.935218065561     0.378917641403    12.000000000000
           C          0.580644917432     1.749904065561    -0.834119358597    12.000000000000
           H          2.045592917432     0.927952065561     0.527549641403     1.007825032070
           H          0.513693917432     1.310635065561     1.282237641403     1.007825032070
           H          1.044908917432     1.354724065561    -1.730403358597     1.007825032070
           H          0.900802917432     2.778683065561    -0.706266358597     1.007825032070
           H         -0.494394082568     1.739356065561    -0.972203358597     1.007825032070

  Running in c1 symmetry.

  Rotational constants: A =      0.52414  B =      0.09940  C =      0.08990 [cm^-1]
  Rotational constants: A =  15713.17311  B =   2979.85006  C =   2695.25786 [MHz]
  Nuclear repulsion =  179.510797316051963

  Charge       = 0
  Multiplicity = 1
  Electrons    = 40
  Nalpha       = 20
  Nbeta        = 20

  ==> Algorithm <==

  SCF Algorithm Type is DF.
  DIIS enabled.
  MOM disabled.
  Fractional occupation disabled.
  Guess Type is CORE.
  Energy threshold   = 1.00e-06
  Density threshold  = 1.00e-06
  Integral threshold = 0.00e+00

  ==> Primary Basis <==

  Basis Set: 6-31G*
    Number of shells: 42
    Number of basis function: 87
    Number of Cartesian functions: 87
    Spherical Harmonics?: false
    Max angular momentum: 2

  ==> Pre-Iterations <==

   -------------------------------------------------------
    Irrep   Nso     Nmo     Nalpha   Nbeta   Ndocc  Nsocc
   -------------------------------------------------------
     A         87      87       0       0       0       0
   -------------------------------------------------------
    Total      87      87      20      20      20       0
   -------------------------------------------------------

 OEINTS: Overlap, kinetic, potential, dipole, and quadrupole integrals
         stored in file 35.

  ==> Integral Setup <==

  ==> DFJK: Density-Fitted J/K Matrices <==

    J tasked:                  Yes
    K tasked:                  Yes
    wK tasked:                  No
    OpenMP threads:              1
    Integrals threads:           1
    Memory (MB):              1430
    Algorithm:                Core
    Integral Cache:           NONE
    Schwarz Cutoff:          1E-12
    Fitting Condition:       1E-12

   => Auxiliary Basis Set <=

  Basis Set: 
    Number of shells: 174
    Number of basis function: 555
    Number of Cartesian functions: 555
    Spherical Harmonics?: false
    Max angular momentum: 3

  Minimum eigenvalue in the overlap matrix is 4.6013867095E-03.
  Using Symmetric Orthogonalization.
  SCF Guess: Core (One-Electron) Hamiltonian.

  ==> Iterations <==

                           Total Energy        Delta E     RMS |[F,P]|

   @DF-RHF iter   1:  -217.10092270456553   -2.17101e+02   8.25793e-02 
   @DF-RHF iter   2:  -161.43414435260561    5.56668e+01   9.06539e-02 DIIS
   @DF-RHF iter   3:  -247.78005326838249   -8.63459e+01   4.03957e-02 DIIS
   @DF-RHF iter   4:  -235.16317600317140    1.26169e+01   6.52690e-02 DIIS
   @DF-RHF iter   5:  -265.95252278195005   -3.07893e+01   1.46877e-02 DIIS
   @DF-RHF iter   6:  -266.41974987856167   -4.67227e-01   1.02490e-02 DIIS
   @DF-RHF iter   7:  -266.74595253225255   -3.26203e-01   3.55879e-03 DIIS
   @DF-RHF iter   8:  -266.80720185975179   -6.12493e-02   9.28252e-04 DIIS
   @DF-RHF iter   9:  -266.81216913440767   -4.96727e-03   2.51672e-04 DIIS
   @DF-RHF iter  10:  -266.81259482501252   -4.25691e-04   6.98492e-05 DIIS
   @DF-RHF iter  11:  -266.81263346436037   -3.86393e-05   2.45152e-05 DIIS
   @DF-RHF iter  12:  -266.81263819214621   -4.72779e-06   9.45769e-06 DIIS
   @DF-RHF iter  13:  -266.81263890030164   -7.08155e-07   3.26260e-06 DIIS
   @DF-RHF iter  14:  -266.81263903670651   -1.36405e-07   1.11201e-06 DIIS
   @DF-RHF iter  15:  -266.81263905360709   -1.69006e-08   3.26436e-07 DIIS

  ==> Post-Iterations <==

    Orbital Energies (a.u.)
    -----------------------

    Doubly Occupied:                                                      

       1A    -20.612210     2A    -20.555069     3A    -11.379121  
       4A    -11.310313     5A    -11.239855     6A     -1.473368  
       7A     -1.378433     8A     -1.058044     9A     -0.915940  
      10A     -0.833442    11A     -0.740268    12A     -0.687172  
      13A     -0.660831    14A     -0.622626    15A     -0.592150  
      16A     -0.564737    17A     -0.541859    18A     -0.514609  
      19A     -0.455268    20A     -0.446695  

    Virtual:                                                              

      21A      0.183446    22A      0.223785    23A      0.263514  
      24A      0.276322    25A      0.292081    26A      0.312782  
      27A      0.318734    28A      0.368554    29A      0.393768  
      30A      0.453765    31A      0.538532    32A      0.692253  
      33A      0.697318    34A      0.742507    35A      0.752233  
      36A      0.779605    37A      0.845388    38A      0.886260  
      39A      0.910271    40A      0.984487    41A      1.034057  
      42A      1.085362    43A      1.120342    44A      1.133874  
      45A      1.145870    46A      1.167299    47A      1.183129  
      48A      1.226094    49A      1.289136    50A      1.303902  
      51A      1.325681    52A      1.342868    53A      1.374650  
      54A      1.534786    55A      1.615533    56A      1.631457  
      57A      1.758897    58A      1.799979    59A      1.832637  
      60A      1.855178    61A      1.975350    62A      2.060070  
      63A      2.092566    64A      2.153184    65A      2.181117  
      66A      2.226394    67A      2.241815    68A      2.331137  
      69A      2.407964    70A      2.484760    71A      2.557109  
      72A      2.609799    73A      2.619034    74A      2.683906  
      75A      2.767994    76A      2.932483    77A      2.979398  
      78A      3.028201    79A      3.045859    80A      3.207060  
      81A      3.359659    82A      3.508290    83A      4.311968  
      84A      4.382528    85A      4.612302    86A      4.731463  
      87A      4.834346  

    Final Occupation by Irrep:
              A 
    DOCC [    20 ]

  Energy converged.

  @DF-RHF Final Energy:  -266.81263905360709

   => Energetics <=

    Nuclear Repulsion Energy =            179.5107973160519634
    One-Electron Energy =                -719.4828389672801450
    Two-Electron Energy =                 273.1594025976212947
    DFT Exchange-Correlation Energy =       0.0000000000000000
    Empirical Dispersion Energy =           0.0000000000000000
    PCM Polarization Energy =               0.0000000000000000
    EFP Energy =                            0.0000000000000000
    Total Energy =                       -266.8126390536069152

    Alert: EFP and PCM quantities not currently incorporated into SCF psivars.

Properties will be evaluated at   0.000000,   0.000000,   0.000000 Bohr
  ==> Properties <==


Properties computed using the SCF density matrix

  Nuclear Dipole Moment: (a.u.)
     X:     2.5369      Y:     7.8993      Z:    -1.3501

  Electronic Dipole Moment: (a.u.)
     X:    -1.9771      Y:    -6.0916      Z:     1.4125

  Dipole Moment: (a.u.)
     X:     0.5597      Y:     1.8077      Z:     0.0624     Total:     1.8934

  Dipole Moment: (Debye)
     X:     1.4227      Y:     4.5947      Z:     0.1586     Total:     4.8126


  Saving occupied orbitals to File 180.

*** tstop() called on cx1-3-6-1.cx1.hpc.ic.ac.uk at Tue Jul  5 16:33:07 2016
Module time:
	user time   =       3.56 seconds =       0.06 minutes
	system time =       0.03 seconds =       0.00 minutes
	total time  =          4 seconds =       0.07 minutes
Total time:
	user time   =       3.56 seconds =       0.06 minutes
	system time =       0.03 seconds =       0.00 minutes
	total time  =          4 seconds =       0.07 minutes


Properties will be evaluated at   0.000000,   0.000000,   0.000000 Bohr

Properties computed using the  density matrix

  Nuclear Dipole Moment: (a.u.)
     X:     2.5369      Y:     7.8993      Z:    -1.3501

  Electronic Dipole Moment: (a.u.)
     X:    -1.9771      Y:    -6.0916      Z:     1.4125

  Dipole Moment: (a.u.)
     X:     0.5597      Y:     1.8077      Z:     0.0624     Total:     1.8934

  Dipole Moment: (Debye)
     X:     1.4227      Y:     4.5947      Z:     0.1586     Total:     4.8126

  Quadrupole Moment: (Debye Ang)
    XX:   -30.9176     YY:   -34.7774     ZZ:   -29.0984
    XY:    -2.0500     XZ:     0.4045     YZ:     0.9209

  Traceless Quadrupole Moment: (Debye Ang)
    XX:     0.6802     YY:    -3.1796     ZZ:     2.4994
    XY:    -2.0500     XZ:     0.4045     YZ:     0.9209

  Mulliken Charges: (a.u.)
   Center  Symbol    Alpha    Beta     Spin     Total
       1     H     0.43670  0.43670  0.00000  0.12661
       2     C     2.71225  2.71225  0.00000  0.57550
       3     O     4.28372  4.28372  0.00000 -0.56744
       4     O     4.25592  4.25592  0.00000 -0.51185
       5     C     3.01770  3.01770  0.00000 -0.03541
       6     C     3.25753  3.25753  0.00000 -0.51506
       7     H     0.39589  0.39589  0.00000  0.20822
       8     H     0.41189  0.41189  0.00000  0.17621
       9     H     0.40261  0.40261  0.00000  0.19478
      10     H     0.41303  0.41303  0.00000  0.17394
      11     H     0.41275  0.41275  0.00000  0.17450

   Total alpha = 20.00000, Total beta = 20.00000, Total charge = -0.00000


*** PSI4 exiting successfully. Buy a developer a beer!
