    -----------------------------------------------------------------------
          Psi4: An Open-Source Ab Initio Electronic Structure Package
                              Psi4 (no tag) Driver

                          Git: Rev {detached?}  

    J. M. Turney, A. C. Simmonett, R. M. Parrish, E. G. Hohenstein,
    F. A. Evangelista, J. T. Fermann, B. J. Mintz, L. A. Burns, J. J. Wilke,
    M. L. Abrams, N. J. Russ, M. L. Leininger, C. L. Janssen, E. T. Seidl,
    W. D. Allen, H. F. Schaefer, R. A. King, E. F. Valeev, C. D. Sherrill,
    and T. D. Crawford, WIREs Comput. Mol. Sci. 2, 556-565 (2012)
    (doi: 10.1002/wcms.93)

                         Additional Contributions by
    A. E. DePrince, M. Saitow, U. Bozkaya, A. Yu. Sokolov
    -----------------------------------------------------------------------


    Psi4 started on: Tue Jul  5 16:43:30 2016

    Process ID:  17850
    PSI4DATADIR: /export131/home/mjharvey/miniconda3/share
    Memory level set to 256.000 MB

  ==> Input File <==

--------------------------------------------------------------------------
set {
	reference rhf
	basis 6-31G*
}


set_num_threads( 1 )
memory 2 gb

molecule MOL {
0 1

H	 -3.571158	 0.540474	 0.139285
O	 -3.106200	 -0.271124	 -0.011510
C	 -1.775819	 -0.076055	 -0.001477
C	 -1.050948	 0.030419	 1.181835
C	 -1.135021	 0.017707	 -1.230563
H	 -1.555323	 -0.043384	 2.130238
C	 0.312609	 0.230343	 1.131208
H	 -1.715906	 -0.067609	 -2.129209
C	 0.229255	 0.217739	 -1.264815
H	 0.884331	 0.314316	 2.036295
C	 0.969034	 0.326396	 -0.091552
H	 0.726320	 0.290469	 -2.217023
C	 2.428645	 0.540404	 -0.143976
O	 3.091018	 0.465455	 -1.132107
H	 2.894606	 0.783142	 0.816818

	symmetry c1
}
set optking {
	frozen_dihedral = ("
		7 11 13 14
	")
}

ee = energy('scf')
oeprop('DIPOLE', 'QUADRUPOLE', 'MULLIKEN_CHARGES')
f=open( 'psi4out.xyz', 'w' )
f.write( "15  " )
f.write( str(ee) + "\n" )
f.write( MOL.save_string_xyz() )
f.close()
--------------------------------------------------------------------------

  Memory set to   2.000 GiB by Python script.

*** tstart() called on cx1-1-3-3.cx1.hpc.ic.ac.uk
*** at Tue Jul  5 16:43:31 2016


         ---------------------------------------------------------
                                   SCF
            by Justin Turney, Rob Parrish, and Andy Simmonett
                              RHF Reference
                        1 Threads,   2000 MiB Core
         ---------------------------------------------------------

  ==> Geometry <==

    Molecular point group: c1
    Full point group: C1

    Geometry (in Angstrom), charge = 0, multiplicity = 1:

       Center              X                  Y                   Z               Mass       
    ------------   -----------------  -----------------  -----------------  -----------------
           H         -3.547679890169     0.373447525492     0.323996994132     1.007825032070
           O         -3.082721890169    -0.438150474508     0.173201994132    15.994914619560
           C         -1.752340890169    -0.243081474508     0.183234994132    12.000000000000
           C         -1.027469890169    -0.136607474508     1.366546994132    12.000000000000
           C         -1.111542890169    -0.149319474508    -1.045851005868    12.000000000000
           H         -1.531844890169    -0.210410474508     2.314949994132     1.007825032070
           C          0.336087109831     0.063316525492     1.315919994132    12.000000000000
           H         -1.692427890169    -0.234635474508    -1.944497005868     1.007825032070
           C          0.252733109831     0.050712525492    -1.080103005868    12.000000000000
           H          0.907809109831     0.147289525492     2.221006994132     1.007825032070
           C          0.992512109831     0.159369525492     0.093159994132    12.000000000000
           H          0.749798109831     0.123442525492    -2.032311005868     1.007825032070
           C          2.452123109831     0.373377525492     0.040735994132    12.000000000000
           O          3.114496109831     0.298428525492    -0.947395005868    15.994914619560
           H          2.918084109831     0.616115525492     1.001529994132     1.007825032070

  Running in c1 symmetry.

  Rotational constants: A =      0.17182  B =      0.03359  C =      0.02818 [cm^-1]
  Rotational constants: A =   5151.11381  B =   1006.91772  C =    844.96183 [MHz]
  Nuclear repulsion =  401.287765362292362

  Charge       = 0
  Multiplicity = 1
  Electrons    = 64
  Nalpha       = 32
  Nbeta        = 32

  ==> Algorithm <==

  SCF Algorithm Type is DF.
  DIIS enabled.
  MOM disabled.
  Fractional occupation disabled.
  Guess Type is CORE.
  Energy threshold   = 1.00e-06
  Density threshold  = 1.00e-06
  Integral threshold = 0.00e+00

  ==> Primary Basis <==

  Basis Set: 6-31G*
    Number of shells: 66
    Number of basis function: 147
    Number of Cartesian functions: 147
    Spherical Harmonics?: false
    Max angular momentum: 2

  ==> Pre-Iterations <==

   -------------------------------------------------------
    Irrep   Nso     Nmo     Nalpha   Nbeta   Ndocc  Nsocc
   -------------------------------------------------------
     A        147     147       0       0       0       0
   -------------------------------------------------------
    Total     147     147      32      32      32       0
   -------------------------------------------------------

 OEINTS: Overlap, kinetic, potential, dipole, and quadrupole integrals
         stored in file 35.

  ==> Integral Setup <==

  ==> DFJK: Density-Fitted J/K Matrices <==

    J tasked:                  Yes
    K tasked:                  Yes
    wK tasked:                  No
    OpenMP threads:              1
    Integrals threads:           1
    Memory (MB):              1430
    Algorithm:                Core
    Integral Cache:           NONE
    Schwarz Cutoff:          1E-12
    Fitting Condition:       1E-12

   => Auxiliary Basis Set <=

  Basis Set: 
    Number of shells: 270
    Number of basis function: 879
    Number of Cartesian functions: 879
    Spherical Harmonics?: false
    Max angular momentum: 3

  Minimum eigenvalue in the overlap matrix is 4.0000588351E-04.
  Using Symmetric Orthogonalization.
  SCF Guess: Core (One-Electron) Hamiltonian.

  ==> Iterations <==

                           Total Energy        Delta E     RMS |[F,P]|

   @DF-RHF iter   1:  -343.06766233867290   -3.43068e+02   6.07058e-02 
   @DF-RHF iter   2:  -201.51299663338284    1.41555e+02   7.80146e-02 DIIS
   @DF-RHF iter   3:  -328.19248467893090   -1.26679e+02   4.82652e-02 DIIS
   @DF-RHF iter   4:  -310.91024015868447    1.72822e+01   5.69476e-02 DIIS
   @DF-RHF iter   5:  -417.20914351378565   -1.06299e+02   1.05913e-02 DIIS
   @DF-RHF iter   6:  -417.75141108992329   -5.42268e-01   7.83155e-03 DIIS
   @DF-RHF iter   7:  -418.26323575350557   -5.11825e-01   1.14018e-03 DIIS
   @DF-RHF iter   8:  -418.27954901105511   -1.63133e-02   3.49370e-04 DIIS
   @DF-RHF iter   9:  -418.28192996311054   -2.38095e-03   1.64039e-04 DIIS
   @DF-RHF iter  10:  -418.28247504934507   -5.45086e-04   7.77413e-05 DIIS
   @DF-RHF iter  11:  -418.28272331315770   -2.48264e-04   3.34765e-05 DIIS
   @DF-RHF iter  12:  -418.28277585454725   -5.25414e-05   1.63420e-05 DIIS
   @DF-RHF iter  13:  -418.28278767020572   -1.18157e-05   5.70730e-06 DIIS
   @DF-RHF iter  14:  -418.28278926709220   -1.59689e-06   2.70430e-06 DIIS
   @DF-RHF iter  15:  -418.28278956902022   -3.01928e-07   9.23203e-07 DIIS

  ==> Post-Iterations <==

    Orbital Energies (a.u.)
    -----------------------

    Doubly Occupied:                                                      

       1A    -20.594289     2A    -20.560114     3A    -11.330709  
       4A    -11.313066     5A    -11.259802     6A    -11.252129  
       7A    -11.244130     8A    -11.243880     9A    -11.238756  
      10A     -1.420419    11A     -1.400396    12A     -1.169574  
      13A     -1.041028    14A     -1.035598    15A     -0.889433  
      16A     -0.855597    17A     -0.799333    18A     -0.754445  
      19A     -0.704335    20A     -0.675242    21A     -0.645851  
      22A     -0.632378    23A     -0.618437    24A     -0.606102  
      25A     -0.559778    26A     -0.552673    27A     -0.536961  
      28A     -0.494653    29A     -0.479896    30A     -0.421725  
      31A     -0.354750    32A     -0.338751  

    Virtual:                                                              

      33A      0.088999    34A      0.129804    35A      0.207841  
      36A      0.234177    37A      0.242750    38A      0.263161  
      39A      0.300111    40A      0.321583    41A      0.332897  
      42A      0.375114    43A      0.415345    44A      0.426666  
      45A      0.450393    46A      0.488856    47A      0.540329  
      48A      0.566058    49A      0.576220    50A      0.709470  
      51A      0.715195    52A      0.726127    53A      0.749827  
      54A      0.753671    55A      0.778245    56A      0.779542  
      57A      0.808464    58A      0.809738    59A      0.824744  
      60A      0.862993    61A      0.872712    62A      0.891893  
      63A      0.897971    64A      0.933412    65A      0.992092  
      66A      1.013663    67A      1.020523    68A      1.055655  
      69A      1.081987    70A      1.088069    71A      1.109434  
      72A      1.113344    73A      1.127610    74A      1.145305  
      75A      1.180066    76A      1.202642    77A      1.212520  
      78A      1.221726    79A      1.272093    80A      1.304221  
      81A      1.305780    82A      1.350176    83A      1.362153  
      84A      1.394098    85A      1.416579    86A      1.452352  
      87A      1.471548    88A      1.486341    89A      1.536099  
      90A      1.633696    91A      1.647384    92A      1.705126  
      93A      1.718480    94A      1.724973    95A      1.762567  
      96A      1.771708    97A      1.817849    98A      1.830748  
      99A      1.884636   100A      2.024421   101A      2.034125  
     102A      2.042614   103A      2.076401   104A      2.086647  
     105A      2.152551   106A      2.177873   107A      2.225301  
     108A      2.236692   109A      2.278062   110A      2.304180  
     111A      2.340769   112A      2.371709   113A      2.400983  
     114A      2.415521   115A      2.447152   116A      2.459857  
     117A      2.600115   118A      2.602925   119A      2.632883  
     120A      2.640792   121A      2.656798   122A      2.736129  
     123A      2.739034   124A      2.849825   125A      2.884893  
     126A      2.934107   127A      2.955773   128A      3.005317  
     129A      3.035501   130A      3.041718   131A      3.107691  
     132A      3.181948   133A      3.250152   134A      3.319005  
     135A      3.357929   136A      3.410363   137A      3.562982  
     138A      3.831727   139A      4.307612   140A      4.332455  
     141A      4.514596   142A      4.533646   143A      4.586344  
     144A      4.679696   145A      4.742681   146A      4.894218  
     147A      5.178263  

    Final Occupation by Irrep:
              A 
    DOCC [    32 ]

  Energy converged.

  @DF-RHF Final Energy:  -418.28278956902022

   => Energetics <=

    Nuclear Repulsion Energy =            401.2877653622923617
    One-Electron Energy =               -1365.0927127478189504
    Two-Electron Energy =                 545.5221578165060237
    DFT Exchange-Correlation Energy =       0.0000000000000000
    Empirical Dispersion Energy =           0.0000000000000000
    PCM Polarization Energy =               0.0000000000000000
    EFP Energy =                            0.0000000000000000
    Total Energy =                       -418.2827895690205651

    Alert: EFP and PCM quantities not currently incorporated into SCF psivars.

Properties will be evaluated at   0.000000,   0.000000,   0.000000 Bohr
  ==> Properties <==


Properties computed using the SCF density matrix

  Nuclear Dipole Moment: (a.u.)
     X:    -2.0588      Y:     0.7636      Z:     1.7631

  Electronic Dipole Moment: (a.u.)
     X:     0.9828      Y:    -0.1220      Z:    -0.8516

  Dipole Moment: (a.u.)
     X:    -1.0760      Y:     0.6416      Z:     0.9115     Total:     1.5493

  Dipole Moment: (Debye)
     X:    -2.7349      Y:     1.6308      Z:     2.3169     Total:     3.9379


  Saving occupied orbitals to File 180.

*** tstop() called on cx1-1-3-3.cx1.hpc.ic.ac.uk at Tue Jul  5 16:43:46 2016
Module time:
	user time   =      14.32 seconds =       0.24 minutes
	system time =       0.09 seconds =       0.00 minutes
	total time  =         15 seconds =       0.25 minutes
Total time:
	user time   =      14.32 seconds =       0.24 minutes
	system time =       0.09 seconds =       0.00 minutes
	total time  =         15 seconds =       0.25 minutes


Properties will be evaluated at   0.000000,   0.000000,   0.000000 Bohr

Properties computed using the  density matrix

  Nuclear Dipole Moment: (a.u.)
     X:    -2.0588      Y:     0.7636      Z:     1.7631

  Electronic Dipole Moment: (a.u.)
     X:     0.9828      Y:    -0.1220      Z:    -0.8516

  Dipole Moment: (a.u.)
     X:    -1.0760      Y:     0.6416      Z:     0.9115     Total:     1.5493

  Dipole Moment: (Debye)
     X:    -2.7349      Y:     1.6308      Z:     2.3169     Total:     3.9379

  Quadrupole Moment: (Debye Ang)
    XX:   -57.1866     YY:   -53.6233     ZZ:   -47.0466
    XY:    -5.6736     XZ:     6.2206     YZ:     1.1688

  Traceless Quadrupole Moment: (Debye Ang)
    XX:    -4.5678     YY:    -1.0044     ZZ:     5.5722
    XY:    -5.6736     XZ:     6.2206     YZ:     1.1688

  Mulliken Charges: (a.u.)
   Center  Symbol    Alpha    Beta     Spin     Total
       1     H     0.26713  0.26713  0.00000  0.46573
       2     O     4.38238  4.38238  0.00000 -0.76476
       3     C     2.80760  2.80760  0.00000  0.38479
       4     C     3.12649  3.12649  0.00000 -0.25299
       5     C     3.12178  3.12178  0.00000 -0.24356
       6     H     0.39104  0.39104  0.00000  0.21791
       7     C     3.09705  3.09705  0.00000 -0.19410
       8     H     0.38769  0.38769  0.00000  0.22461
       9     C     3.08530  3.08530  0.00000 -0.17061
      10     H     0.39021  0.39021  0.00000  0.21957
      11     C     3.05972  3.05972  0.00000 -0.11944
      12     H     0.37679  0.37679  0.00000  0.24642
      13     C     2.83210  2.83210  0.00000  0.33580
      14     O     4.25026  4.25026  0.00000 -0.50053
      15     H     0.42443  0.42443  0.00000  0.15114

   Total alpha = 32.00000, Total beta = 32.00000, Total charge = -0.00000


*** PSI4 exiting successfully. Buy a developer a beer!
