    -----------------------------------------------------------------------
          Psi4: An Open-Source Ab Initio Electronic Structure Package
                              Psi4 (no tag) Driver

                          Git: Rev {detached?}  

    J. M. Turney, A. C. Simmonett, R. M. Parrish, E. G. Hohenstein,
    F. A. Evangelista, J. T. Fermann, B. J. Mintz, L. A. Burns, J. J. Wilke,
    M. L. Abrams, N. J. Russ, M. L. Leininger, C. L. Janssen, E. T. Seidl,
    W. D. Allen, H. F. Schaefer, R. A. King, E. F. Valeev, C. D. Sherrill,
    and T. D. Crawford, WIREs Comput. Mol. Sci. 2, 556-565 (2012)
    (doi: 10.1002/wcms.93)

                         Additional Contributions by
    A. E. DePrince, M. Saitow, U. Bozkaya, A. Yu. Sokolov
    -----------------------------------------------------------------------


    Psi4 started on: Tue Jul  5 16:56:26 2016

    Process ID:  15304
    PSI4DATADIR: /export131/home/mjharvey/miniconda3/share
    Memory level set to 256.000 MB

  ==> Input File <==

--------------------------------------------------------------------------
set {
	reference rhf
	basis 6-31G*
}


set_num_threads( 1 )
memory 2 gb

molecule MOL {
0 1

H	 -2.153054	 -2.250733	 0.000000
O	 -2.462445	 -1.355403	 0.000000
C	 -1.434260	 -0.483044	 0.000000
C	 -0.160282	 -0.998433	 0.214627
C	 -1.606806	 0.873172	 -0.202032
H	 -0.050522	 -2.055314	 0.369249
C	 0.931284	 -0.154718	 0.225708
H	 -2.586306	 1.284548	 -0.369080
C	 -0.495009	 1.711703	 -0.187945
H	 1.912113	 -0.560710	 0.392185
C	 0.777868	 1.209965	 0.024721
C	 -0.683838	 3.129388	 -0.400099
H	 1.624995	 1.868669	 0.032793
N	 -0.834091	 4.243450	 -0.565008

	symmetry c1
}
set optking {
	frozen_dihedral = ("
		5 3 2 1
	")
}

ee = energy('scf')
oeprop('DIPOLE', 'QUADRUPOLE', 'MULLIKEN_CHARGES')
f=open( 'psi4out.xyz', 'w' )
f.write( "14  " )
f.write( str(ee) + "\n" )
f.write( MOL.save_string_xyz() )
f.close()
--------------------------------------------------------------------------

  Memory set to   2.000 GiB by Python script.

*** tstart() called on cx1-3-4-4.cx1.hpc.ic.ac.uk
*** at Tue Jul  5 16:56:27 2016


         ---------------------------------------------------------
                                   SCF
            by Justin Turney, Rob Parrish, and Andy Simmonett
                              RHF Reference
                        1 Threads,   2000 MiB Core
         ---------------------------------------------------------

  ==> Geometry <==

    Molecular point group: c1
    Full point group: C1

    Geometry (in Angstrom), charge = 0, multiplicity = 1:

       Center              X                  Y                   Z               Mass       
    ------------   -----------------  -----------------  -----------------  -----------------
           H         -1.444186606933    -3.086365127304     0.095630805271     1.007825032070
           O         -1.753577606933    -2.191035127304     0.095630805271    15.994914619560
           C         -0.725392606933    -1.318676127304     0.095630805271    12.000000000000
           C          0.548585393067    -1.834065127304     0.310257805271    12.000000000000
           C         -0.897938606933     0.037539872696    -0.106401194729    12.000000000000
           H          0.658345393067    -2.890946127304     0.464879805271     1.007825032070
           C          1.640151393067    -0.990350127304     0.321338805271    12.000000000000
           H         -1.877438606933     0.448915872696    -0.273449194729     1.007825032070
           C          0.213858393067     0.876070872696    -0.092314194729    12.000000000000
           H          2.620980393067    -1.396342127304     0.487815805271     1.007825032070
           C          1.486735393067     0.374332872696     0.120351805271    12.000000000000
           C          0.025029393067     2.293755872696    -0.304468194729    12.000000000000
           H          2.333862393067     1.033036872696     0.128423805271     1.007825032070
           N         -0.125223606933     3.407817872696    -0.469377194729    14.003074004780

  Running in c1 symmetry.

  Rotational constants: A =      0.11885  B =      0.04008  C =      0.02998 [cm^-1]
  Rotational constants: A =   3562.95580  B =   1201.59595  C =    898.63184 [MHz]
  Nuclear repulsion =  379.328035268059978

  Charge       = 0
  Multiplicity = 1
  Electrons    = 62
  Nalpha       = 31
  Nbeta        = 31

  ==> Algorithm <==

  SCF Algorithm Type is DF.
  DIIS enabled.
  MOM disabled.
  Fractional occupation disabled.
  Guess Type is CORE.
  Energy threshold   = 1.00e-06
  Density threshold  = 1.00e-06
  Integral threshold = 0.00e+00

  ==> Primary Basis <==

  Basis Set: 6-31G*
    Number of shells: 64
    Number of basis function: 145
    Number of Cartesian functions: 145
    Spherical Harmonics?: false
    Max angular momentum: 2

  ==> Pre-Iterations <==

   -------------------------------------------------------
    Irrep   Nso     Nmo     Nalpha   Nbeta   Ndocc  Nsocc
   -------------------------------------------------------
     A        145     145       0       0       0       0
   -------------------------------------------------------
    Total     145     145      31      31      31       0
   -------------------------------------------------------

 OEINTS: Overlap, kinetic, potential, dipole, and quadrupole integrals
         stored in file 35.

  ==> Integral Setup <==

  ==> DFJK: Density-Fitted J/K Matrices <==

    J tasked:                  Yes
    K tasked:                  Yes
    wK tasked:                  No
    OpenMP threads:              1
    Integrals threads:           1
    Memory (MB):              1430
    Algorithm:                Core
    Integral Cache:           NONE
    Schwarz Cutoff:          1E-12
    Fitting Condition:       1E-12

   => Auxiliary Basis Set <=

  Basis Set: 
    Number of shells: 261
    Number of basis function: 854
    Number of Cartesian functions: 854
    Spherical Harmonics?: false
    Max angular momentum: 3

  Minimum eigenvalue in the overlap matrix is 4.1967455385E-04.
  Using Symmetric Orthogonalization.
  SCF Guess: Core (One-Electron) Hamiltonian.

  ==> Iterations <==

                           Total Energy        Delta E     RMS |[F,P]|

   @DF-RHF iter   1:  -309.43445625960049   -3.09434e+02   6.50362e-02 
   @DF-RHF iter   2:  -146.48842556130370    1.62946e+02   7.88243e-02 DIIS
   @DF-RHF iter   3:  -317.83824967789718   -1.71350e+02   5.28137e-02 DIIS
   @DF-RHF iter   4:  -342.03308340221741   -2.41948e+01   5.26765e-02 DIIS
   @DF-RHF iter   5:  -395.87998362520221   -5.38469e+01   1.08091e-02 DIIS
   @DF-RHF iter   6:  -397.09052787707486   -1.21054e+00   4.29599e-03 DIIS
   @DF-RHF iter   7:  -397.27040152578223   -1.79874e-01   1.18805e-03 DIIS
   @DF-RHF iter   8:  -397.28589159561801   -1.54901e-02   4.35875e-04 DIIS
   @DF-RHF iter   9:  -397.28843711139410   -2.54552e-03   1.39963e-04 DIIS
   @DF-RHF iter  10:  -397.28882049934208   -3.83388e-04   6.02668e-05 DIIS
   @DF-RHF iter  11:  -397.28892310502448   -1.02606e-04   3.04354e-05 DIIS
   @DF-RHF iter  12:  -397.28897267042015   -4.95654e-05   1.36208e-05 DIIS
   @DF-RHF iter  13:  -397.28898217621082   -9.50579e-06   7.14234e-06 DIIS
   @DF-RHF iter  14:  -397.28898550627258   -3.33006e-06   2.39358e-06 DIIS
   @DF-RHF iter  15:  -397.28898575549459   -2.49222e-07   5.75961e-07 DIIS

  ==> Post-Iterations <==

    Orbital Energies (a.u.)
    -----------------------

    Doubly Occupied:                                                      

       1A    -20.611047     2A    -15.574811     3A    -11.327056  
       4A    -11.294963     5A    -11.275905     6A    -11.264870  
       7A    -11.261204     8A    -11.259546     9A    -11.258562  
      10A     -1.433015    11A     -1.232412    12A     -1.182513  
      13A     -1.063419    14A     -1.039941    15A     -0.898839  
      16A     -0.859235    17A     -0.793922    18A     -0.718018  
      19A     -0.691176    20A     -0.675867    21A     -0.629000  
      22A     -0.614658    23A     -0.592229    24A     -0.566872  
      25A     -0.547170    26A     -0.538130    27A     -0.522300  
      28A     -0.473587    29A     -0.472042    30A     -0.363659  
      31A     -0.337545  

    Virtual:                                                              

      32A      0.085756    33A      0.132542    34A      0.200312  
      35A      0.220298    36A      0.225895    37A      0.274127  
      38A      0.280419    39A      0.290821    40A      0.330337  
      41A      0.369263    42A      0.378553    43A      0.437632  
      44A      0.455209    45A      0.468657    46A      0.485834  
      47A      0.570755    48A      0.598718    49A      0.633636  
      50A      0.700303    51A      0.713993    52A      0.717187  
      53A      0.757325    54A      0.782775    55A      0.793268  
      56A      0.803104    57A      0.804023    58A      0.827389  
      59A      0.852282    60A      0.856731    61A      0.870999  
      62A      0.884255    63A      0.887601    64A      0.937568  
      65A      0.955042    66A      0.993280    67A      0.996673  
      68A      1.064714    69A      1.090036    70A      1.103505  
      71A      1.104231    72A      1.122986    73A      1.126895  
      74A      1.138687    75A      1.169684    76A      1.188547  
      77A      1.220855    78A      1.232486    79A      1.262206  
      80A      1.331365    81A      1.376305    82A      1.391980  
      83A      1.437706    84A      1.450190    85A      1.465302  
      86A      1.518165    87A      1.558957    88A      1.587467  
      89A      1.610083    90A      1.634391    91A      1.688040  
      92A      1.701488    93A      1.730380    94A      1.733406  
      95A      1.799781    96A      1.807024    97A      1.844954  
      98A      1.983290    99A      2.024180   100A      2.062250  
     101A      2.079598   102A      2.102762   103A      2.110505  
     104A      2.154380   105A      2.227342   106A      2.241762  
     107A      2.261965   108A      2.285190   109A      2.292200  
     110A      2.295541   111A      2.330009   112A      2.388348  
     113A      2.422955   114A      2.440289   115A      2.454495  
     116A      2.537155   117A      2.585712   118A      2.614077  
     119A      2.623409   120A      2.754228   121A      2.824837  
     122A      2.843172   123A      2.868046   124A      2.928918  
     125A      2.994037   126A      3.004522   127A      3.023812  
     128A      3.097877   129A      3.138730   130A      3.168867  
     131A      3.209209   132A      3.280562   133A      3.382040  
     134A      3.562870   135A      3.674684   136A      3.870774  
     137A      4.348304   138A      4.465618   139A      4.506277  
     140A      4.559760   141A      4.613385   142A      4.720944  
     143A      4.828479   144A      4.970596   145A      5.257823  

    Final Occupation by Irrep:
              A 
    DOCC [    31 ]

  Energy converged.

  @DF-RHF Final Energy:  -397.28898575549459

   => Energetics <=

    Nuclear Repulsion Energy =            379.3280352680599776
    One-Electron Energy =               -1290.4867985638895789
    Two-Electron Energy =                 513.8697775403351216
    DFT Exchange-Correlation Energy =       0.0000000000000000
    Empirical Dispersion Energy =           0.0000000000000000
    PCM Polarization Energy =               0.0000000000000000
    EFP Energy =                            0.0000000000000000
    Total Energy =                       -397.2889857554945365

    Alert: EFP and PCM quantities not currently incorporated into SCF psivars.

Properties will be evaluated at   0.000000,   0.000000,   0.000000 Bohr
  ==> Properties <==


Properties computed using the SCF density matrix

  Nuclear Dipole Moment: (a.u.)
     X:     2.1402      Y:    -5.5437      Z:     0.8486

  Electronic Dipole Moment: (a.u.)
     X:    -1.4439      Y:     3.3462      Z:    -0.5870

  Dipole Moment: (a.u.)
     X:     0.6963      Y:    -2.1975      Z:     0.2617     Total:     2.3200

  Dipole Moment: (Debye)
     X:     1.7698      Y:    -5.5855      Z:     0.6651     Total:     5.8968


  Saving occupied orbitals to File 180.

*** tstop() called on cx1-3-4-4.cx1.hpc.ic.ac.uk at Tue Jul  5 16:56:45 2016
Module time:
	user time   =      17.52 seconds =       0.29 minutes
	system time =       0.09 seconds =       0.00 minutes
	total time  =         18 seconds =       0.30 minutes
Total time:
	user time   =      17.52 seconds =       0.29 minutes
	system time =       0.09 seconds =       0.00 minutes
	total time  =         18 seconds =       0.30 minutes


Properties will be evaluated at   0.000000,   0.000000,   0.000000 Bohr

Properties computed using the  density matrix

  Nuclear Dipole Moment: (a.u.)
     X:     2.1402      Y:    -5.5437      Z:     0.8486

  Electronic Dipole Moment: (a.u.)
     X:    -1.4439      Y:     3.3462      Z:    -0.5870

  Dipole Moment: (a.u.)
     X:     0.6963      Y:    -2.1975      Z:     0.2617     Total:     2.3200

  Dipole Moment: (Debye)
     X:     1.7698      Y:    -5.5855      Z:     0.6651     Total:     5.8968

  Quadrupole Moment: (Debye Ang)
    XX:   -48.8408     YY:   -56.9806     ZZ:   -54.1958
    XY:    -0.2431     XZ:     1.0672     YZ:     1.3607

  Traceless Quadrupole Moment: (Debye Ang)
    XX:     4.4983     YY:    -3.6415     ZZ:    -0.8567
    XY:    -0.2431     XZ:     1.0672     YZ:     1.3607

  Mulliken Charges: (a.u.)
   Center  Symbol    Alpha    Beta     Spin     Total
       1     H     0.26692  0.26692  0.00000  0.46615
       2     O     4.37907  4.37907  0.00000 -0.75814
       3     C     2.78298  2.78298  0.00000  0.43405
       4     C     3.13897  3.13897  0.00000 -0.27794
       5     C     3.11588  3.11588  0.00000 -0.23176
       6     H     0.39660  0.39660  0.00000  0.20680
       7     C     3.09483  3.09483  0.00000 -0.18967
       8     H     0.37402  0.37402  0.00000  0.25196
       9     C     2.99089  2.99089  0.00000  0.01823
      10     H     0.38938  0.38938  0.00000  0.22125
      11     C     3.09957  3.09957  0.00000 -0.19914
      12     C     2.86528  2.86528  0.00000  0.26944
      13     H     0.38122  0.38122  0.00000  0.23756
      14     N     3.72439  3.72439  0.00000 -0.44878

   Total alpha = 31.00000, Total beta = 31.00000, Total charge = -0.00000


*** PSI4 exiting successfully. Buy a developer a beer!
