    -----------------------------------------------------------------------
          Psi4: An Open-Source Ab Initio Electronic Structure Package
                              Psi4 (no tag) Driver

                          Git: Rev {detached?}  

    J. M. Turney, A. C. Simmonett, R. M. Parrish, E. G. Hohenstein,
    F. A. Evangelista, J. T. Fermann, B. J. Mintz, L. A. Burns, J. J. Wilke,
    M. L. Abrams, N. J. Russ, M. L. Leininger, C. L. Janssen, E. T. Seidl,
    W. D. Allen, H. F. Schaefer, R. A. King, E. F. Valeev, C. D. Sherrill,
    and T. D. Crawford, WIREs Comput. Mol. Sci. 2, 556-565 (2012)
    (doi: 10.1002/wcms.93)

                         Additional Contributions by
    A. E. DePrince, M. Saitow, U. Bozkaya, A. Yu. Sokolov
    -----------------------------------------------------------------------


    Psi4 started on: Tue Jul  5 16:40:31 2016

    Process ID:  23995
    PSI4DATADIR: /export131/home/mjharvey/miniconda3/share
    Memory level set to 256.000 MB

  ==> Input File <==

--------------------------------------------------------------------------
set {
	reference rhf
	basis 6-31G*
}


set_num_threads( 1 )
memory 2 gb

molecule MOL {
0 1

H	 -1.951486	 1.761760	 1.269234
C	 -0.940012	 1.375020	 1.313689
C	 -0.603454	 0.661669	 0.000000
H	 -0.870574	 0.694447	 2.153594
H	 -0.264451	 2.203357	 1.489520
C	 0.763625	 0.112519	 0.000000
H	 -1.290788	 -0.156903	 -0.179110
H	 -0.688506	 1.342445	 -0.838976
N	 1.813038	 -0.320305	 0.000000

	symmetry c1
}
ee = energy('scf')
oeprop('DIPOLE', 'QUADRUPOLE', 'MULLIKEN_CHARGES')
f=open( 'psi4out.xyz', 'w' )
f.write( "9  " )
f.write( str(ee) + "\n" )
f.write( MOL.save_string_xyz() )
f.close()
--------------------------------------------------------------------------

  Memory set to   2.000 GiB by Python script.

*** tstart() called on cx1-3-16-4.cx1.hpc.ic.ac.uk
*** at Tue Jul  5 16:40:32 2016


         ---------------------------------------------------------
                                   SCF
            by Justin Turney, Rob Parrish, and Andy Simmonett
                              RHF Reference
                        1 Threads,   2000 MiB Core
         ---------------------------------------------------------

  ==> Geometry <==

    Molecular point group: c1
    Full point group: C1

    Geometry (in Angstrom), charge = 0, multiplicity = 1:

       Center              X                  Y                   Z               Mass       
    ------------   -----------------  -----------------  -----------------  -----------------
           H         -2.149962230358     1.267664816026     0.911526585985     1.007825032070
           C         -1.138488230358     0.880924816026     0.955981585985    12.000000000000
           C         -0.801930230358     0.167573816026    -0.357707414015    12.000000000000
           H         -1.069050230358     0.200351816026     1.795886585985     1.007825032070
           H         -0.462927230358     1.709261816026     1.131812585985     1.007825032070
           C          0.565148769642    -0.381576183974    -0.357707414015    12.000000000000
           H         -1.489264230358    -0.650998183974    -0.536817414015     1.007825032070
           H         -0.886982230358     0.848349816026    -1.196683414015     1.007825032070
           N          1.614561769642    -0.814400183974    -0.357707414015    14.003074004780

  Running in c1 symmetry.

  Rotational constants: A =      0.94727  B =      0.15705  C =      0.14171 [cm^-1]
  Rotational constants: A =  28398.56379  B =   4708.27702  C =   4248.50758 [MHz]
  Nuclear repulsion =  103.390993824528948

  Charge       = 0
  Multiplicity = 1
  Electrons    = 30
  Nalpha       = 15
  Nbeta        = 15

  ==> Algorithm <==

  SCF Algorithm Type is DF.
  DIIS enabled.
  MOM disabled.
  Fractional occupation disabled.
  Guess Type is CORE.
  Energy threshold   = 1.00e-06
  Density threshold  = 1.00e-06
  Integral threshold = 0.00e+00

  ==> Primary Basis <==

  Basis Set: 6-31G*
    Number of shells: 34
    Number of basis function: 70
    Number of Cartesian functions: 70
    Spherical Harmonics?: false
    Max angular momentum: 2

  ==> Pre-Iterations <==

   -------------------------------------------------------
    Irrep   Nso     Nmo     Nalpha   Nbeta   Ndocc  Nsocc
   -------------------------------------------------------
     A         70      70       0       0       0       0
   -------------------------------------------------------
    Total      70      70      15      15      15       0
   -------------------------------------------------------

 OEINTS: Overlap, kinetic, potential, dipole, and quadrupole integrals
         stored in file 35.

  ==> Integral Setup <==

  ==> DFJK: Density-Fitted J/K Matrices <==

    J tasked:                  Yes
    K tasked:                  Yes
    wK tasked:                  No
    OpenMP threads:              1
    Integrals threads:           1
    Memory (MB):              1430
    Algorithm:                Core
    Integral Cache:           NONE
    Schwarz Cutoff:          1E-12
    Fitting Condition:       1E-12

   => Auxiliary Basis Set <=

  Basis Set: 
    Number of shells: 141
    Number of basis function: 449
    Number of Cartesian functions: 449
    Spherical Harmonics?: false
    Max angular momentum: 3

  Minimum eigenvalue in the overlap matrix is 1.3874837857E-03.
  Using Symmetric Orthogonalization.
  SCF Guess: Core (One-Electron) Hamiltonian.

  ==> Iterations <==

                           Total Energy        Delta E     RMS |[F,P]|

   @DF-RHF iter   1:  -133.95655405400186   -1.33957e+02   8.77804e-02 
   @DF-RHF iter   2:  -109.98109165867021    2.39755e+01   8.01974e-02 DIIS
   @DF-RHF iter   3:  -154.24386718714362   -4.42628e+01   4.92310e-02 DIIS
   @DF-RHF iter   4:  -159.51788528759459   -5.27402e+00   4.62753e-02 DIIS
   @DF-RHF iter   5:  -170.63866407996619   -1.11208e+01   1.15820e-02 DIIS
   @DF-RHF iter   6:  -170.89853341447542   -2.59869e-01   5.66041e-03 DIIS
   @DF-RHF iter   7:  -170.96012675421764   -6.15933e-02   7.26684e-04 DIIS
   @DF-RHF iter   8:  -170.96206802092553   -1.94127e-03   3.25083e-04 DIIS
   @DF-RHF iter   9:  -170.96237345533774   -3.05434e-04   6.89295e-05 DIIS
   @DF-RHF iter  10:  -170.96240639306149   -3.29377e-05   2.90386e-05 DIIS
   @DF-RHF iter  11:  -170.96241654881720   -1.01558e-05   1.38393e-05 DIIS
   @DF-RHF iter  12:  -170.96241961016023   -3.06134e-06   4.14212e-06 DIIS
   @DF-RHF iter  13:  -170.96241984536897   -2.35209e-07   1.17587e-06 DIIS
   @DF-RHF iter  14:  -170.96241985852515   -1.31562e-08   3.46387e-07 DIIS

  ==> Post-Iterations <==

    Orbital Energies (a.u.)
    -----------------------

    Doubly Occupied:                                                      

       1A    -15.567053     2A    -11.283672     3A    -11.269383  
       4A    -11.245859     5A     -1.224543     6A     -1.082293  
       7A     -0.911736     8A     -0.699444     9A     -0.659452  
      10A     -0.587691    11A     -0.560812    12A     -0.543942  
      13A     -0.536599    14A     -0.458558    15A     -0.458485  

    Virtual:                                                              

      16A      0.194863    17A      0.214999    18A      0.244184  
      19A      0.279565    20A      0.286933    21A      0.308391  
      22A      0.350297    23A      0.361705    24A      0.413177  
      25A      0.461690    26A      0.716569    27A      0.717544  
      28A      0.740935    29A      0.788413    30A      0.805270  
      31A      0.864290    32A      0.892017    33A      0.947752  
      34A      0.978536    35A      1.064713    36A      1.100749  
      37A      1.118609    38A      1.123898    39A      1.148127  
      40A      1.176438    41A      1.177389    42A      1.225102  
      43A      1.344913    44A      1.519275    45A      1.657070  
      46A      1.679656    47A      1.707324    48A      1.789582  
      49A      1.811680    50A      1.919025    51A      1.993447  
      52A      2.132365    53A      2.203878    54A      2.272594  
      55A      2.288022    56A      2.314353    57A      2.337094  
      58A      2.544264    59A      2.579803    60A      2.643546  
      61A      2.663493    62A      2.850329    63A      3.128485  
      64A      3.140638    65A      3.205374    66A      3.644032  
      67A      4.465789    68A      4.528213    69A      4.704556  
      70A      5.070933  

    Final Occupation by Irrep:
              A 
    DOCC [    15 ]

  Energy converged.

  @DF-RHF Final Energy:  -170.96241985852515

   => Energetics <=

    Nuclear Repulsion Energy =            103.3909938245289482
    One-Electron Energy =                -434.5277757434222394
    Two-Electron Energy =                 160.1743620603683667
    DFT Exchange-Correlation Energy =       0.0000000000000000
    Empirical Dispersion Energy =           0.0000000000000000
    PCM Polarization Energy =               0.0000000000000000
    EFP Energy =                            0.0000000000000000
    Total Energy =                       -170.9624198585249246

    Alert: EFP and PCM quantities not currently incorporated into SCF psivars.

Properties will be evaluated at   0.000000,   0.000000,   0.000000 Bohr
  ==> Properties <==


Properties computed using the SCF density matrix

  Nuclear Dipole Moment: (a.u.)
     X:    -5.6841      Y:     3.1660      Z:     1.9751

  Electronic Dipole Moment: (a.u.)
     X:     4.1840      Y:    -2.5216      Z:    -1.8975

  Dipole Moment: (a.u.)
     X:    -1.5001      Y:     0.6443      Z:     0.0776     Total:     1.6345

  Dipole Moment: (Debye)
     X:    -3.8129      Y:     1.6377      Z:     0.1972     Total:     4.1544


  Saving occupied orbitals to File 180.

*** tstop() called on cx1-3-16-4.cx1.hpc.ic.ac.uk at Tue Jul  5 16:40:35 2016
Module time:
	user time   =       3.39 seconds =       0.06 minutes
	system time =       0.03 seconds =       0.00 minutes
	total time  =          3 seconds =       0.05 minutes
Total time:
	user time   =       3.39 seconds =       0.06 minutes
	system time =       0.03 seconds =       0.00 minutes
	total time  =          3 seconds =       0.05 minutes


Properties will be evaluated at   0.000000,   0.000000,   0.000000 Bohr

Properties computed using the  density matrix

  Nuclear Dipole Moment: (a.u.)
     X:    -5.6841      Y:     3.1660      Z:     1.9751

  Electronic Dipole Moment: (a.u.)
     X:     4.1840      Y:    -2.5216      Z:    -1.8975

  Dipole Moment: (a.u.)
     X:    -1.5001      Y:     0.6443      Z:     0.0776     Total:     1.6345

  Dipole Moment: (Debye)
     X:    -3.8129      Y:     1.6377      Z:     0.1972     Total:     4.1544

  Quadrupole Moment: (Debye Ang)
    XX:   -29.0624     YY:   -25.2239     ZZ:   -24.0207
    XY:     2.6312     XZ:     1.2120     YZ:    -0.5397

  Traceless Quadrupole Moment: (Debye Ang)
    XX:    -2.9601     YY:     0.8784     ZZ:     2.0817
    XY:     2.6312     XZ:     1.2120     YZ:    -0.5397

  Mulliken Charges: (a.u.)
   Center  Symbol    Alpha    Beta     Spin     Total
       1     H     0.40904  0.40904  0.00000  0.18191
       2     C     3.24310  3.24310  0.00000 -0.48620
       3     C     3.18200  3.18200  0.00000 -0.36400
       4     H     0.40539  0.40539  0.00000  0.18922
       5     H     0.40546  0.40546  0.00000  0.18908
       6     C     2.84836  2.84836  0.00000  0.30327
       7     H     0.38836  0.38836  0.00000  0.22329
       8     H     0.38858  0.38858  0.00000  0.22285
       9     N     3.72971  3.72971  0.00000 -0.45942

   Total alpha = 15.00000, Total beta = 15.00000, Total charge =  0.00000


*** PSI4 exiting successfully. Buy a developer a beer!
