    -----------------------------------------------------------------------
          Psi4: An Open-Source Ab Initio Electronic Structure Package
                              Psi4 (no tag) Driver

                          Git: Rev {detached?}  

    J. M. Turney, A. C. Simmonett, R. M. Parrish, E. G. Hohenstein,
    F. A. Evangelista, J. T. Fermann, B. J. Mintz, L. A. Burns, J. J. Wilke,
    M. L. Abrams, N. J. Russ, M. L. Leininger, C. L. Janssen, E. T. Seidl,
    W. D. Allen, H. F. Schaefer, R. A. King, E. F. Valeev, C. D. Sherrill,
    and T. D. Crawford, WIREs Comput. Mol. Sci. 2, 556-565 (2012)
    (doi: 10.1002/wcms.93)

                         Additional Contributions by
    A. E. DePrince, M. Saitow, U. Bozkaya, A. Yu. Sokolov
    -----------------------------------------------------------------------


    Psi4 started on: Tue Jul  5 16:25:38 2016

    Process ID:  20312
    PSI4DATADIR: /export131/home/mjharvey/miniconda3/share
    Memory level set to 256.000 MB

  ==> Input File <==

--------------------------------------------------------------------------
set {
	reference rhf
	basis 6-31G*
}


set_num_threads( 1 )
memory 2 gb

molecule MOL {
0 1

H	 -0.824183	 1.631517	 -0.278062
O	 0.055946	 1.300438	 -0.164479
C	 0.004957	 -0.004114	 0.366649
C	 1.201664	 -0.828089	 -0.095740
C	 -1.317755	 -0.601827	 -0.081511
H	 0.013527	 0.048298	 1.454924
H	 1.216388	 -0.895289	 -1.178704
H	 2.135132	 -0.372895	 0.226467
H	 1.166770	 -1.832878	 0.313827
H	 -1.355732	 -0.658248	 -1.164429
H	 -2.141614	 0.017037	 0.254547
H	 -1.447303	 -1.600817	 0.322594

	symmetry c1
}
ee = energy('scf')
oeprop('DIPOLE', 'QUADRUPOLE', 'MULLIKEN_CHARGES')
f=open( 'psi4out.xyz', 'w' )
f.write( "12  " )
f.write( str(ee) + "\n" )
f.write( MOL.save_string_xyz() )
f.close()
--------------------------------------------------------------------------

  Memory set to   2.000 GiB by Python script.

*** tstart() called on cx1-3-15-4.cx1.hpc.ic.ac.uk
*** at Tue Jul  5 16:25:38 2016


         ---------------------------------------------------------
                                   SCF
            by Justin Turney, Rob Parrish, and Andy Simmonett
                              RHF Reference
                        1 Threads,   2000 MiB Core
         ---------------------------------------------------------

  ==> Geometry <==

    Molecular point group: c1
    Full point group: C1

    Geometry (in Angstrom), charge = 0, multiplicity = 1:

       Center              X                  Y                   Z               Mass       
    ------------   -----------------  -----------------  -----------------  -----------------
           H         -0.796119048433     1.633180496509    -0.271280672038     1.007825032070
           O          0.084009951567     1.302101496509    -0.157697672038    15.994914619560
           C          0.033020951567    -0.002450503491     0.373430327962    12.000000000000
           C          1.229727951567    -0.826425503491    -0.088958672038    12.000000000000
           C         -1.289691048433    -0.600163503491    -0.074729672038    12.000000000000
           H          0.041590951567     0.049961496509     1.461705327962     1.007825032070
           H          1.244451951567    -0.893625503491    -1.171922672038     1.007825032070
           H          2.163195951567    -0.371231503491     0.233248327962     1.007825032070
           H          1.194833951567    -1.831214503491     0.320608327962     1.007825032070
           H         -1.327668048433    -0.656584503491    -1.157647672038     1.007825032070
           H         -2.113550048433     0.018700496509     0.261328327962     1.007825032070
           H         -1.419239048433    -1.599153503491     0.329375327962     1.007825032070

  Running in c1 symmetry.

  Rotational constants: A =      0.30401  B =      0.26295  C =      0.16113 [cm^-1]
  Rotational constants: A =   9114.09023  B =   7882.94231  C =   4830.44935 [MHz]
  Nuclear repulsion =  135.754525859702852

  Charge       = 0
  Multiplicity = 1
  Electrons    = 34
  Nalpha       = 17
  Nbeta        = 17

  ==> Algorithm <==

  SCF Algorithm Type is DF.
  DIIS enabled.
  MOM disabled.
  Fractional occupation disabled.
  Guess Type is CORE.
  Energy threshold   = 1.00e-06
  Density threshold  = 1.00e-06
  Integral threshold = 0.00e+00

  ==> Primary Basis <==

  Basis Set: 6-31G*
    Number of shells: 40
    Number of basis function: 76
    Number of Cartesian functions: 76
    Spherical Harmonics?: false
    Max angular momentum: 2

  ==> Pre-Iterations <==

   -------------------------------------------------------
    Irrep   Nso     Nmo     Nalpha   Nbeta   Ndocc  Nsocc
   -------------------------------------------------------
     A         76      76       0       0       0       0
   -------------------------------------------------------
    Total      76      76      17      17      17       0
   -------------------------------------------------------

 OEINTS: Overlap, kinetic, potential, dipole, and quadrupole integrals
         stored in file 35.

  ==> Integral Setup <==

  ==> DFJK: Density-Fitted J/K Matrices <==

    J tasked:                  Yes
    K tasked:                  Yes
    wK tasked:                  No
    OpenMP threads:              1
    Integrals threads:           1
    Memory (MB):              1430
    Algorithm:                Core
    Integral Cache:           NONE
    Schwarz Cutoff:          1E-12
    Fitting Condition:       1E-12

   => Auxiliary Basis Set <=

  Basis Set: 
    Number of shells: 168
    Number of basis function: 524
    Number of Cartesian functions: 524
    Spherical Harmonics?: false
    Max angular momentum: 3

  Minimum eigenvalue in the overlap matrix is 4.1078617456E-03.
  Using Symmetric Orthogonalization.
  SCF Guess: Core (One-Electron) Hamiltonian.

  ==> Iterations <==

                           Total Energy        Delta E     RMS |[F,P]|

   @DF-RHF iter   1:  -158.68698734838196   -1.58687e+02   8.54200e-02 
   @DF-RHF iter   2:  -154.81754887421917    3.86944e+00   5.66930e-02 DIIS
   @DF-RHF iter   3:  -170.73490907199826   -1.59174e+01   6.53456e-02 DIIS
   @DF-RHF iter   4:  -190.97012180822620   -2.02352e+01   2.73302e-02 DIIS
   @DF-RHF iter   5:  -192.38863794298473   -1.41852e+00   1.50336e-02 DIIS
   @DF-RHF iter   6:  -192.99230773728479   -6.03670e-01   6.11127e-03 DIIS
   @DF-RHF iter   7:  -193.10493698517999   -1.12629e-01   1.32874e-03 DIIS
   @DF-RHF iter   8:  -193.11059322256560   -5.65624e-03   5.18185e-04 DIIS
   @DF-RHF iter   9:  -193.11172244508040   -1.12922e-03   1.18868e-04 DIIS
   @DF-RHF iter  10:  -193.11179719294481   -7.47479e-05   3.36015e-05 DIIS
   @DF-RHF iter  11:  -193.11180252834473   -5.33540e-06   7.73926e-06 DIIS
   @DF-RHF iter  12:  -193.11180281505838   -2.86714e-07   2.12852e-06 DIIS
   @DF-RHF iter  13:  -193.11180283903357   -2.39752e-08   4.52109e-07 DIIS

  ==> Post-Iterations <==

    Orbital Energies (a.u.)
    -----------------------

    Doubly Occupied:                                                      

       1A    -20.548198     2A    -11.276018     3A    -11.216601  
       4A    -11.210143     5A     -1.359920     6A     -1.042270  
       7A     -0.943764     8A     -0.808015     9A     -0.683652  
      10A     -0.637824    11A     -0.611531    12A     -0.550528  
      13A     -0.539391    14A     -0.525217    15A     -0.514046  
      16A     -0.465063    17A     -0.427952  

    Virtual:                                                              

      18A      0.218667    19A      0.272415    20A      0.291033  
      21A      0.293419    22A      0.307399    23A      0.326083  
      24A      0.350485    25A      0.352594    26A      0.401608  
      27A      0.427976    28A      0.446599    29A      0.707994  
      30A      0.723329    31A      0.792529    32A      0.811013  
      33A      0.815295    34A      0.901510    35A      0.956596  
      36A      0.968993    37A      0.991737    38A      1.108585  
      39A      1.139673    40A      1.165207    41A      1.172169  
      42A      1.177106    43A      1.195801    44A      1.209034  
      45A      1.229532    46A      1.257329    47A      1.312818  
      48A      1.324211    49A      1.467317    50A      1.614147  
      51A      1.638851    52A      1.691113    53A      1.726199  
      54A      1.984473    55A      2.043698    56A      2.069026  
      57A      2.129868    58A      2.191571    59A      2.285818  
      60A      2.305558    61A      2.396271    62A      2.450428  
      63A      2.522115    64A      2.583368    65A      2.600470  
      66A      2.627962    67A      2.783293    68A      2.877552  
      69A      2.897525    70A      2.940416    71A      3.076071  
      72A      3.240348    73A      4.203100    74A      4.612694  
      75A      4.719279    76A      4.940787  

    Final Occupation by Irrep:
              A 
    DOCC [    17 ]

  Energy converged.

  @DF-RHF Final Energy:  -193.11180283903357

   => Energetics <=

    Nuclear Repulsion Energy =            135.7545258597028521
    One-Electron Energy =                -531.0124278004402640
    Two-Electron Energy =                 202.1460991017036690
    DFT Exchange-Correlation Energy =       0.0000000000000000
    Empirical Dispersion Energy =           0.0000000000000000
    PCM Polarization Energy =               0.0000000000000000
    EFP Energy =                            0.0000000000000000
    Total Energy =                       -193.1118028390337145

    Alert: EFP and PCM quantities not currently incorporated into SCF psivars.

Properties will be evaluated at   0.000000,   0.000000,   0.000000 Bohr
  ==> Properties <==


Properties computed using the SCF density matrix

  Nuclear Dipole Moment: (a.u.)
     X:    -0.9488      Y:    -3.4155      Z:     0.0043

  Electronic Dipole Moment: (a.u.)
     X:     0.3705      Y:     3.0328      Z:     0.1210

  Dipole Moment: (a.u.)
     X:    -0.5783      Y:    -0.3826      Z:     0.1253     Total:     0.7047

  Dipole Moment: (Debye)
     X:    -1.4699      Y:    -0.9726      Z:     0.3185     Total:     1.7911


  Saving occupied orbitals to File 180.

*** tstop() called on cx1-3-15-4.cx1.hpc.ic.ac.uk at Tue Jul  5 16:25:41 2016
Module time:
	user time   =       2.93 seconds =       0.05 minutes
	system time =       0.02 seconds =       0.00 minutes
	total time  =          3 seconds =       0.05 minutes
Total time:
	user time   =       2.93 seconds =       0.05 minutes
	system time =       0.02 seconds =       0.00 minutes
	total time  =          3 seconds =       0.05 minutes


Properties will be evaluated at   0.000000,   0.000000,   0.000000 Bohr

Properties computed using the  density matrix

  Nuclear Dipole Moment: (a.u.)
     X:    -0.9488      Y:    -3.4155      Z:     0.0043

  Electronic Dipole Moment: (a.u.)
     X:     0.3705      Y:     3.0328      Z:     0.1210

  Dipole Moment: (a.u.)
     X:    -0.5783      Y:    -0.3826      Z:     0.1253     Total:     0.7047

  Dipole Moment: (Debye)
     X:    -1.4699      Y:    -0.9726      Z:     0.3185     Total:     1.7911

  Quadrupole Moment: (Debye Ang)
    XX:   -25.4732     YY:   -27.4136     ZZ:   -26.5770
    XY:    -3.1115     XZ:     0.5706     YZ:    -0.1492

  Traceless Quadrupole Moment: (Debye Ang)
    XX:     1.0147     YY:    -0.9256     ZZ:    -0.0891
    XY:    -3.1115     XZ:     0.5706     YZ:    -0.1492

  Mulliken Charges: (a.u.)
   Center  Symbol    Alpha    Beta     Spin     Total
       1     H     0.27957  0.27957  0.00000  0.44087
       2     O     4.37756  4.37756  0.00000 -0.75512
       3     C     2.90471  2.90471  0.00000  0.19058
       4     C     3.24261  3.24261  0.00000 -0.48523
       5     C     3.26221  3.26221  0.00000 -0.52442
       6     H     0.42820  0.42820  0.00000  0.14359
       7     H     0.41646  0.41646  0.00000  0.16707
       8     H     0.41149  0.41149  0.00000  0.17702
       9     H     0.42202  0.42202  0.00000  0.15597
      10     H     0.41404  0.41404  0.00000  0.17192
      11     H     0.42325  0.42325  0.00000  0.15350
      12     H     0.41788  0.41788  0.00000  0.16424

   Total alpha = 17.00000, Total beta = 17.00000, Total charge = -0.00000


*** PSI4 exiting successfully. Buy a developer a beer!
