    -----------------------------------------------------------------------
          Psi4: An Open-Source Ab Initio Electronic Structure Package
                              Psi4 (no tag) Driver

                          Git: Rev {detached?}  

    J. M. Turney, A. C. Simmonett, R. M. Parrish, E. G. Hohenstein,
    F. A. Evangelista, J. T. Fermann, B. J. Mintz, L. A. Burns, J. J. Wilke,
    M. L. Abrams, N. J. Russ, M. L. Leininger, C. L. Janssen, E. T. Seidl,
    W. D. Allen, H. F. Schaefer, R. A. King, E. F. Valeev, C. D. Sherrill,
    and T. D. Crawford, WIREs Comput. Mol. Sci. 2, 556-565 (2012)
    (doi: 10.1002/wcms.93)

                         Additional Contributions by
    A. E. DePrince, M. Saitow, U. Bozkaya, A. Yu. Sokolov
    -----------------------------------------------------------------------


    Psi4 started on: Tue Jul  5 16:33:52 2016

    Process ID:  15941
    PSI4DATADIR: /export131/home/mjharvey/miniconda3/share
    Memory level set to 256.000 MB

  ==> Input File <==

--------------------------------------------------------------------------
set {
	reference rhf
	basis 6-31G*
}


set_num_threads( 1 )
memory 2 gb

molecule MOL {
0 1

H	 -3.107568	 0.273416	 0.099035
O	 -2.347518	 -0.290803	 0.079804
C	 -1.184022	 0.487508	 -0.006784
C	 0.062599	 -0.378592	 0.031606
H	 -1.176523	 1.099369	 -0.904519
H	 -1.187323	 1.153111	 0.844927
O	 -0.043959	 -1.331029	 -0.978982
H	 0.152937	 -0.862108	 1.006301
H	 0.944499	 0.244194	 -0.106143
C	 1.051901	 -2.183439	 -1.086827
H	 1.203606	 -2.754072	 -0.172501
H	 0.853769	 -2.869137	 -1.898901
H	 1.964096	 -1.631937	 -1.304857

	symmetry c1
}
set optking {
	frozen_dihedral = ("
		8 4 3 5,
		10 7 4 8,
		4 7 10 13
	")
}

ee = energy('scf')
oeprop('DIPOLE', 'QUADRUPOLE', 'MULLIKEN_CHARGES')
f=open( 'psi4out.xyz', 'w' )
f.write( "13  " )
f.write( str(ee) + "\n" )
f.write( MOL.save_string_xyz() )
f.close()
--------------------------------------------------------------------------

  Memory set to   2.000 GiB by Python script.

*** tstart() called on cx1-49-4-2.cx1.hpc.ic.ac.uk
*** at Tue Jul  5 16:33:52 2016


         ---------------------------------------------------------
                                   SCF
            by Justin Turney, Rob Parrish, and Andy Simmonett
                              RHF Reference
                        1 Threads,   2000 MiB Core
         ---------------------------------------------------------

  ==> Geometry <==

    Molecular point group: c1
    Full point group: C1

    Geometry (in Angstrom), charge = 0, multiplicity = 1:

       Center              X                  Y                   Z               Mass       
    ------------   -----------------  -----------------  -----------------  -----------------
           H         -2.588965240433     1.012700023796     0.488004300007     1.007825032070
           O         -1.828915240433     0.448481023796     0.468773300007    15.994914619560
           C         -0.665419240433     1.226792023796     0.382185300007    12.000000000000
           C          0.581201759567     0.360692023796     0.420575300007    12.000000000000
           H         -0.657920240433     1.838653023796    -0.515549699993     1.007825032070
           H         -0.668720240433     1.892395023796     1.233896300007     1.007825032070
           O          0.474643759567    -0.591744976204    -0.590012699993    15.994914619560
           H          0.671539759567    -0.122823976204     1.395270300007     1.007825032070
           H          1.463101759567     0.983478023796     0.282826300007     1.007825032070
           C          1.570503759567    -1.444154976204    -0.697857699993    12.000000000000
           H          1.722208759567    -2.014787976204     0.216468300007     1.007825032070
           H          1.372371759567    -2.129852976204    -1.509931699993     1.007825032070
           H          2.482698759567    -0.892652976204    -0.915887699993     1.007825032070

  Running in c1 symmetry.

  Rotational constants: A =      0.46064  B =      0.09027  C =      0.08120 [cm^-1]
  Rotational constants: A =  13809.50214  B =   2706.24049  C =   2434.33616 [MHz]
  Nuclear repulsion =  193.427280186829904

  Charge       = 0
  Multiplicity = 1
  Electrons    = 42
  Nalpha       = 21
  Nbeta        = 21

  ==> Algorithm <==

  SCF Algorithm Type is DF.
  DIIS enabled.
  MOM disabled.
  Fractional occupation disabled.
  Guess Type is CORE.
  Energy threshold   = 1.00e-06
  Density threshold  = 1.00e-06
  Integral threshold = 0.00e+00

  ==> Primary Basis <==

  Basis Set: 6-31G*
    Number of shells: 46
    Number of basis function: 91
    Number of Cartesian functions: 91
    Spherical Harmonics?: false
    Max angular momentum: 2

  ==> Pre-Iterations <==

   -------------------------------------------------------
    Irrep   Nso     Nmo     Nalpha   Nbeta   Ndocc  Nsocc
   -------------------------------------------------------
     A         91      91       0       0       0       0
   -------------------------------------------------------
    Total      91      91      21      21      21       0
   -------------------------------------------------------

 OEINTS: Overlap, kinetic, potential, dipole, and quadrupole integrals
         stored in file 35.

  ==> Integral Setup <==

  ==> DFJK: Density-Fitted J/K Matrices <==

    J tasked:                  Yes
    K tasked:                  Yes
    wK tasked:                  No
    OpenMP threads:              1
    Integrals threads:           1
    Memory (MB):              1430
    Algorithm:                Core
    Integral Cache:           NONE
    Schwarz Cutoff:          1E-12
    Fitting Condition:       1E-12

   => Auxiliary Basis Set <=

  Basis Set: 
    Number of shells: 192
    Number of basis function: 605
    Number of Cartesian functions: 605
    Spherical Harmonics?: false
    Max angular momentum: 3

  Minimum eigenvalue in the overlap matrix is 4.4263460194E-03.
  Using Symmetric Orthogonalization.
  SCF Guess: Core (One-Electron) Hamiltonian.

  ==> Iterations <==

                           Total Energy        Delta E     RMS |[F,P]|

   @DF-RHF iter   1:  -223.45883777244032   -2.23459e+02   7.94777e-02 
   @DF-RHF iter   2:  -169.19383064564786    5.42650e+01   6.79173e-02 DIIS
   @DF-RHF iter   3:  -228.98884265184782   -5.97950e+01   6.80451e-02 DIIS
   @DF-RHF iter   4:  -256.74928709669837   -2.77604e+01   3.86366e-02 DIIS
   @DF-RHF iter   5:  -267.51669759888227   -1.07674e+01   9.92387e-03 DIIS
   @DF-RHF iter   6:  -267.89032470091843   -3.73627e-01   3.73212e-03 DIIS
   @DF-RHF iter   7:  -267.94054044115694   -5.02157e-02   1.03189e-03 DIIS
   @DF-RHF iter   8:  -267.94455322768965   -4.01279e-03   3.94274e-04 DIIS
   @DF-RHF iter   9:  -267.94531519119028   -7.61964e-04   1.34254e-04 DIIS
   @DF-RHF iter  10:  -267.94540879815816   -9.36070e-05   4.39946e-05 DIIS
   @DF-RHF iter  11:  -267.94542124683835   -1.24487e-05   1.55676e-05 DIIS
   @DF-RHF iter  12:  -267.94542257204432   -1.32521e-06   4.18588e-06 DIIS
   @DF-RHF iter  13:  -267.94542268222699   -1.10183e-07   7.58704e-07 DIIS

  ==> Post-Iterations <==

    Orbital Energies (a.u.)
    -----------------------

    Doubly Occupied:                                                      

       1A    -20.552557     2A    -20.549343     3A    -11.271594  
       4A    -11.270134     5A    -11.262951     6A     -1.382085  
       7A     -1.352994     8A     -1.017334     9A     -0.912264  
      10A     -0.826953    11A     -0.708954    12A     -0.674980  
      13A     -0.643979    14A     -0.633816    15A     -0.602780  
      16A     -0.553893    17A     -0.538436    18A     -0.487302  
      19A     -0.469356    20A     -0.434605    21A     -0.413864  

    Virtual:                                                              

      22A      0.223948    23A      0.248882    24A      0.280836  
      25A      0.302582    26A      0.319586    27A      0.326647  
      28A      0.337127    29A      0.343607    30A      0.358734  
      31A      0.416224    32A      0.434083    33A      0.453663  
      34A      0.726758    35A      0.764213    36A      0.775503  
      37A      0.810481    38A      0.816410    39A      0.845183  
      40A      0.882966    41A      0.951737    42A      0.993975  
      43A      1.062196    44A      1.105623    45A      1.120265  
      46A      1.134994    47A      1.153412    48A      1.163890  
      49A      1.191263    50A      1.208533    51A      1.234786  
      52A      1.266585    53A      1.291427    54A      1.330121  
      55A      1.394844    56A      1.406105    57A      1.449207  
      58A      1.596599    59A      1.664052    60A      1.695863  
      61A      1.740573    62A      1.791738    63A      1.852889  
      64A      1.940772    65A      2.020841    66A      2.058643  
      67A      2.078333    68A      2.219047    69A      2.261403  
      70A      2.382846    71A      2.402437    72A      2.435763  
      73A      2.472436    74A      2.502142    75A      2.525779  
      76A      2.621795    77A      2.649692    78A      2.713400  
      79A      2.765515    80A      2.827277    81A      2.868499  
      82A      2.907623    83A      3.056597    84A      3.187120  
      85A      3.203383    86A      3.355226    87A      4.163861  
      88A      4.374060    89A      4.638567    90A      4.684247  
      91A      4.876846  

    Final Occupation by Irrep:
              A 
    DOCC [    21 ]

  Energy converged.

  @DF-RHF Final Energy:  -267.94542268222699

   => Energetics <=

    Nuclear Repulsion Energy =            193.4272801868299041
    One-Electron Energy =                -749.6250003597496061
    Two-Electron Energy =                 288.2522974906923423
    DFT Exchange-Correlation Energy =       0.0000000000000000
    Empirical Dispersion Energy =           0.0000000000000000
    PCM Polarization Energy =               0.0000000000000000
    EFP Energy =                            0.0000000000000000
    Total Energy =                       -267.9454226822273881

    Alert: EFP and PCM quantities not currently incorporated into SCF psivars.

Properties will be evaluated at   0.000000,   0.000000,   0.000000 Bohr
  ==> Properties <==


Properties computed using the SCF density matrix

  Nuclear Dipole Moment: (a.u.)
     X:     3.5524      Y:     0.5310      Z:     0.6323

  Electronic Dipole Moment: (a.u.)
     X:    -3.1216      Y:     0.1645      Z:    -0.3447

  Dipole Moment: (a.u.)
     X:     0.4308      Y:     0.6955      Z:     0.2876     Total:     0.8672

  Dipole Moment: (Debye)
     X:     1.0950      Y:     1.7678      Z:     0.7310     Total:     2.2042


  Saving occupied orbitals to File 180.

*** tstop() called on cx1-49-4-2.cx1.hpc.ic.ac.uk at Tue Jul  5 16:34:00 2016
Module time:
	user time   =       7.14 seconds =       0.12 minutes
	system time =       0.03 seconds =       0.00 minutes
	total time  =          8 seconds =       0.13 minutes
Total time:
	user time   =       7.14 seconds =       0.12 minutes
	system time =       0.03 seconds =       0.00 minutes
	total time  =          8 seconds =       0.13 minutes


Properties will be evaluated at   0.000000,   0.000000,   0.000000 Bohr

Properties computed using the  density matrix

  Nuclear Dipole Moment: (a.u.)
     X:     3.5524      Y:     0.5310      Z:     0.6323

  Electronic Dipole Moment: (a.u.)
     X:    -3.1216      Y:     0.1645      Z:    -0.3447

  Dipole Moment: (a.u.)
     X:     0.4308      Y:     0.6955      Z:     0.2876     Total:     0.8672

  Dipole Moment: (Debye)
     X:     1.0950      Y:     1.7678      Z:     0.7310     Total:     2.2042

  Quadrupole Moment: (Debye Ang)
    XX:   -26.8509     YY:   -27.4500     ZZ:   -31.9759
    XY:    -5.3743     XZ:    -0.6128     YZ:     1.3460

  Traceless Quadrupole Moment: (Debye Ang)
    XX:     1.9080     YY:     1.3089     ZZ:    -3.2169
    XY:    -5.3743     XZ:    -0.6128     YZ:     1.3460

  Mulliken Charges: (a.u.)
   Center  Symbol    Alpha    Beta     Spin     Total
       1     H     0.28052  0.28052  0.00000  0.43897
       2     O     4.36461  4.36461  0.00000 -0.72923
       3     C     2.99863  2.99863  0.00000  0.00273
       4     C     2.99382  2.99382  0.00000  0.01235
       5     H     0.42569  0.42569  0.00000  0.14863
       6     H     0.43209  0.43209  0.00000  0.13582
       7     O     4.29668  4.29668  0.00000 -0.59336
       8     H     0.42594  0.42594  0.00000  0.14812
       9     H     0.43105  0.43105  0.00000  0.13789
      10     C     3.07913  3.07913  0.00000 -0.15825
      11     H     0.42912  0.42912  0.00000  0.14177
      12     H     0.41061  0.41061  0.00000  0.17877
      13     H     0.43211  0.43211  0.00000  0.13578

   Total alpha = 21.00000, Total beta = 21.00000, Total charge =  0.00000


*** PSI4 exiting successfully. Buy a developer a beer!
