    -----------------------------------------------------------------------
          Psi4: An Open-Source Ab Initio Electronic Structure Package
                              Psi4 (no tag) Driver

                          Git: Rev {detached?}  

    J. M. Turney, A. C. Simmonett, R. M. Parrish, E. G. Hohenstein,
    F. A. Evangelista, J. T. Fermann, B. J. Mintz, L. A. Burns, J. J. Wilke,
    M. L. Abrams, N. J. Russ, M. L. Leininger, C. L. Janssen, E. T. Seidl,
    W. D. Allen, H. F. Schaefer, R. A. King, E. F. Valeev, C. D. Sherrill,
    and T. D. Crawford, WIREs Comput. Mol. Sci. 2, 556-565 (2012)
    (doi: 10.1002/wcms.93)

                         Additional Contributions by
    A. E. DePrince, M. Saitow, U. Bozkaya, A. Yu. Sokolov
    -----------------------------------------------------------------------


    Psi4 started on: Tue Jul  5 17:10:22 2016

    Process ID:  24264
    PSI4DATADIR: /export131/home/mjharvey/miniconda3/share
    Memory level set to 256.000 MB

  ==> Input File <==

--------------------------------------------------------------------------
set {
	reference rhf
	basis 6-31G*
}


set_num_threads( 1 )
memory 2 gb

molecule MOL {
0 1

O	 1.179411	 1.104994	 -1.417867
C	 0.140502	 1.681556	 -1.381988
C	 -1.113446	 1.190174	 -0.700776
O	 -0.054281	 2.863688	 -1.952602
C	 -0.869484	 0.658962	 0.708351
H	 -1.822943	 2.013169	 -0.693883
H	 -1.551917	 0.427513	 -1.338621
C	 -0.130329	 1.666959	 1.589803
H	 -0.301939	 -0.264608	 0.649919
H	 -1.820503	 0.400040	 1.163353
C	 1.349185	 1.792131	 1.228727
H	 -0.605814	 2.641978	 1.504200
H	 -0.222892	 1.373599	 2.633567
H	 1.474939	 2.117570	 0.200171
H	 1.849614	 2.512749	 1.867911
H	 1.860714	 0.840293	 1.338200
C	 1.065166	 3.726192	 -2.042424
H	 1.444631	 3.960080	 -1.058153
H	 0.709774	 4.621320	 -2.528624
H	 1.850932	 3.269393	 -2.626729

	symmetry c1
}
set optking {
	frozen_dihedral = ("
		9 5 8 12,
		1 2 3 6,
		9 5 3 6
	")
}

ee = energy('scf')
oeprop('DIPOLE', 'QUADRUPOLE', 'MULLIKEN_CHARGES')
f=open( 'psi4out.xyz', 'w' )
f.write( "20  " )
f.write( str(ee) + "\n" )
f.write( MOL.save_string_xyz() )
f.close()
--------------------------------------------------------------------------

  Memory set to   2.000 GiB by Python script.

*** tstart() called on cx1-3-16-2.cx1.hpc.ic.ac.uk
*** at Tue Jul  5 17:10:22 2016


         ---------------------------------------------------------
                                   SCF
            by Justin Turney, Rob Parrish, and Andy Simmonett
                              RHF Reference
                        1 Threads,   2000 MiB Core
         ---------------------------------------------------------

  ==> Geometry <==

    Molecular point group: c1
    Full point group: C1

    Geometry (in Angstrom), charge = 0, multiplicity = 1:

       Center              X                  Y                   Z               Mass       
    ------------   -----------------  -----------------  -----------------  -----------------
           O          0.953862614138    -0.757201806299    -0.901256782247    15.994914619560
           C         -0.085046385862    -0.180639806299    -0.865377782247    12.000000000000
           C         -1.338994385862    -0.672021806299    -0.184165782247    12.000000000000
           O         -0.279829385862     1.001492193701    -1.435991782247    15.994914619560
           C         -1.095032385862    -1.203233806299     1.224961217753    12.000000000000
           H         -2.048491385862     0.150973193701    -0.177272782247     1.007825032070
           H         -1.777465385862    -1.434682806299    -0.822010782247     1.007825032070
           C         -0.355877385862    -0.195236806299     2.106413217753    12.000000000000
           H         -0.527487385862    -2.126803806299     1.166529217753     1.007825032070
           H         -2.046051385862    -1.462155806299     1.679963217753     1.007825032070
           C          1.123636614138    -0.070064806299     1.745337217753    12.000000000000
           H         -0.831362385862     0.779782193701     2.020810217753     1.007825032070
           H         -0.448440385862    -0.488596806299     3.150177217753     1.007825032070
           H          1.249390614138     0.255374193701     0.716781217753     1.007825032070
           H          1.624065614138     0.650553193701     2.384521217753     1.007825032070
           H          1.635165614138    -1.021902806299     1.854810217753     1.007825032070
           C          0.839617614138     1.863996193701    -1.525813782247    12.000000000000
           H          1.219082614138     2.097884193701    -0.541542782247     1.007825032070
           H          0.484225614138     2.759124193701    -2.012013782247     1.007825032070
           H          1.625383614138     1.407197193701    -2.110118782247     1.007825032070

  Running in c1 symmetry.

  Rotational constants: A =      0.10150  B =      0.05023  C =      0.04326 [cm^-1]
  Rotational constants: A =   3042.76296  B =   1505.75560  C =   1296.81961 [MHz]
  Nuclear repulsion =  411.297250755804214

  Charge       = 0
  Multiplicity = 1
  Electrons    = 64
  Nalpha       = 32
  Nbeta        = 32

  ==> Algorithm <==

  SCF Algorithm Type is DF.
  DIIS enabled.
  MOM disabled.
  Fractional occupation disabled.
  Guess Type is CORE.
  Energy threshold   = 1.00e-06
  Density threshold  = 1.00e-06
  Integral threshold = 0.00e+00

  ==> Primary Basis <==

  Basis Set: 6-31G*
    Number of shells: 72
    Number of basis function: 144
    Number of Cartesian functions: 144
    Spherical Harmonics?: false
    Max angular momentum: 2

  ==> Pre-Iterations <==

   -------------------------------------------------------
    Irrep   Nso     Nmo     Nalpha   Nbeta   Ndocc  Nsocc
   -------------------------------------------------------
     A        144     144       0       0       0       0
   -------------------------------------------------------
    Total     144     144      32      32      32       0
   -------------------------------------------------------

 OEINTS: Overlap, kinetic, potential, dipole, and quadrupole integrals
         stored in file 35.

  ==> Integral Setup <==

  ==> DFJK: Density-Fitted J/K Matrices <==

    J tasked:                  Yes
    K tasked:                  Yes
    wK tasked:                  No
    OpenMP threads:              1
    Integrals threads:           1
    Memory (MB):              1430
    Algorithm:                Core
    Integral Cache:           NONE
    Schwarz Cutoff:          1E-12
    Fitting Condition:       1E-12

   => Auxiliary Basis Set <=

  Basis Set: 
    Number of shells: 300
    Number of basis function: 948
    Number of Cartesian functions: 948
    Spherical Harmonics?: false
    Max angular momentum: 3

  Minimum eigenvalue in the overlap matrix is 2.7771234419E-03.
  Using Symmetric Orthogonalization.
  SCF Guess: Core (One-Electron) Hamiltonian.

  ==> Iterations <==

                           Total Energy        Delta E     RMS |[F,P]|

   @DF-RHF iter   1:  -258.30401189455102   -2.58304e+02   7.84064e-02 
   @DF-RHF iter   2:  -189.30576538308770    6.89982e+01   6.15897e-02 DIIS
   @DF-RHF iter   3:  -299.43604538127153   -1.10130e+02   5.54960e-02 DIIS
   @DF-RHF iter   4:  -353.07701512119019   -5.36410e+01   4.43527e-02 DIIS
   @DF-RHF iter   5:  -366.89114332192599   -1.38141e+01   2.95697e-02 DIIS
   @DF-RHF iter   6:  -383.00286601344766   -1.61117e+01   8.56063e-03 DIIS
   @DF-RHF iter   7:  -383.79827207315662   -7.95406e-01   2.69058e-03 DIIS
   @DF-RHF iter   8:  -383.89401034893223   -9.57383e-02   1.02964e-03 DIIS
   @DF-RHF iter   9:  -383.90849405117757   -1.44837e-02   2.86921e-04 DIIS
   @DF-RHF iter  10:  -383.91001739989844   -1.52335e-03   1.58739e-04 DIIS
   @DF-RHF iter  11:  -383.91035885714251   -3.41457e-04   4.40697e-05 DIIS
   @DF-RHF iter  12:  -383.91041291763321   -5.40605e-05   2.05550e-05 DIIS
   @DF-RHF iter  13:  -383.91042006584854   -7.14822e-06   7.27760e-06 DIIS
   @DF-RHF iter  14:  -383.91042107238701   -1.00654e-06   2.35241e-06 DIIS
   @DF-RHF iter  15:  -383.91042124778681   -1.75400e-07   6.75999e-07 DIIS

  ==> Post-Iterations <==

    Orbital Energies (a.u.)
    -----------------------

    Doubly Occupied:                                                      

       1A    -20.603308     2A    -20.544337     3A    -11.375679  
       4A    -11.285241     5A    -11.234582     6A    -11.225664  
       7A    -11.218030     8A    -11.194868     9A     -1.472540  
      10A     -1.367570    11A     -1.092458    12A     -1.019659  
      13A     -0.968280    14A     -0.893537    15A     -0.804068  
      16A     -0.767797    17A     -0.701308    18A     -0.691374  
      19A     -0.673422    20A     -0.631406    21A     -0.618663  
      22A     -0.586390    23A     -0.569538    24A     -0.550951  
      25A     -0.545424    26A     -0.522192    27A     -0.507434  
      28A     -0.483099    29A     -0.472784    30A     -0.465771  
      31A     -0.435759    32A     -0.426800  

    Virtual:                                                              

      33A      0.175911    34A      0.235538    35A      0.255584  
      36A      0.278369    37A      0.284629    38A      0.295405  
      39A      0.310682    40A      0.311842    41A      0.322816  
      42A      0.334647    43A      0.339065    44A      0.345217  
      45A      0.362939    46A      0.387878    47A      0.406704  
      48A      0.434297    49A      0.453255    50A      0.470742  
      51A      0.546777    52A      0.584034    53A      0.703989  
      54A      0.728409    55A      0.732839    56A      0.746113  
      57A      0.759276    58A      0.774882    59A      0.814070  
      60A      0.832094    61A      0.854178    62A      0.895387  
      63A      0.899502    64A      0.930451    65A      0.949571  
      66A      0.969795    67A      0.990003    68A      1.014136  
      69A      1.059282    70A      1.094451    71A      1.119573  
      72A      1.133375    73A      1.145415    74A      1.149207  
      75A      1.159982    76A      1.174645    77A      1.181429  
      78A      1.216722    79A      1.225946    80A      1.235286  
      81A      1.240361    82A      1.251545    83A      1.259180  
      84A      1.263998    85A      1.301069    86A      1.341890  
      87A      1.410656    88A      1.431610    89A      1.483414  
      90A      1.515023    91A      1.538597    92A      1.628061  
      93A      1.659310    94A      1.706521    95A      1.743180  
      96A      1.815641    97A      1.840966    98A      1.873943  
      99A      1.894664   100A      1.907538   101A      2.013303  
     102A      2.046340   103A      2.068143   104A      2.111647  
     105A      2.154569   106A      2.170804   107A      2.214423  
     108A      2.228538   109A      2.257636   110A      2.292434  
     111A      2.344404   112A      2.354682   113A      2.383579  
     114A      2.401011   115A      2.447181   116A      2.455562  
     117A      2.496064   118A      2.577633   119A      2.622565  
     120A      2.643010   121A      2.670660   122A      2.683864  
     123A      2.700014   124A      2.744588   125A      2.777422  
     126A      2.812034   127A      2.840159   128A      2.906522  
     129A      2.960326   130A      3.004948   131A      3.082737  
     132A      3.118791   133A      3.167943   134A      3.365470  
     135A      3.420811   136A      3.542712   137A      4.463745  
     138A      4.542819   139A      4.658485   140A      4.670757  
     141A      4.762475   142A      4.806982   143A      4.950775  
     144A      5.025804  

    Final Occupation by Irrep:
              A 
    DOCC [    32 ]

  Energy converged.

  @DF-RHF Final Energy:  -383.91042124778681

   => Energetics <=

    Nuclear Repulsion Energy =            411.2972507558042139
    One-Electron Energy =               -1338.5155158878130806
    Two-Electron Energy =                 543.3078438842221658
    DFT Exchange-Correlation Energy =       0.0000000000000000
    Empirical Dispersion Energy =           0.0000000000000000
    PCM Polarization Energy =               0.0000000000000000
    EFP Energy =                            0.0000000000000000
    Total Energy =                       -383.9104212477866440

    Alert: EFP and PCM quantities not currently incorporated into SCF psivars.

Properties will be evaluated at   0.000000,   0.000000,   0.000000 Bohr
  ==> Properties <==


Properties computed using the SCF density matrix

  Nuclear Dipole Moment: (a.u.)
     X:     0.1514      Y:     1.4700      Z:     6.8423

  Electronic Dipole Moment: (a.u.)
     X:    -0.6401      Y:    -0.8739      Z:    -6.6774

  Dipole Moment: (a.u.)
     X:    -0.4888      Y:     0.5960      Z:     0.1649     Total:     0.7882

  Dipole Moment: (Debye)
     X:    -1.2423      Y:     1.5150      Z:     0.4190     Total:     2.0035


  Saving occupied orbitals to File 180.

*** tstop() called on cx1-3-16-2.cx1.hpc.ic.ac.uk at Tue Jul  5 17:10:39 2016
Module time:
	user time   =      16.09 seconds =       0.27 minutes
	system time =       0.19 seconds =       0.00 minutes
	total time  =         17 seconds =       0.28 minutes
Total time:
	user time   =      16.09 seconds =       0.27 minutes
	system time =       0.19 seconds =       0.00 minutes
	total time  =         17 seconds =       0.28 minutes


Properties will be evaluated at   0.000000,   0.000000,   0.000000 Bohr

Properties computed using the  density matrix

  Nuclear Dipole Moment: (a.u.)
     X:     0.1514      Y:     1.4700      Z:     6.8423

  Electronic Dipole Moment: (a.u.)
     X:    -0.6401      Y:    -0.8739      Z:    -6.6774

  Dipole Moment: (a.u.)
     X:    -0.4888      Y:     0.5960      Z:     0.1649     Total:     0.7882

  Dipole Moment: (Debye)
     X:    -1.2423      Y:     1.5150      Z:     0.4190     Total:     2.0035

  Quadrupole Moment: (Debye Ang)
    XX:   -50.9044     YY:   -47.6275     ZZ:   -50.2738
    XY:     5.0559     XZ:    -0.5869     YZ:    -2.7730

  Traceless Quadrupole Moment: (Debye Ang)
    XX:    -1.3025     YY:     1.9744     ZZ:    -0.6719
    XY:     5.0559     XZ:    -0.5869     YZ:    -2.7730

  Mulliken Charges: (a.u.)
   Center  Symbol    Alpha    Beta     Spin     Total
       1     O     4.28253  4.28253  0.00000 -0.56507
       2     C     2.60828  2.60828  0.00000  0.78344
       3     C     3.20835  3.20835  0.00000 -0.41671
       4     O     4.30629  4.30629  0.00000 -0.61258
       5     C     3.15639  3.15639  0.00000 -0.31278
       6     H     0.40047  0.40047  0.00000  0.19905
       7     H     0.39779  0.39779  0.00000  0.20441
       8     C     3.16451  3.16451  0.00000 -0.32902
       9     H     0.40878  0.40878  0.00000  0.18244
      10     H     0.41437  0.41437  0.00000  0.17126
      11     C     3.24369  3.24369  0.00000 -0.48739
      12     H     0.42369  0.42369  0.00000  0.15262
      13     H     0.41760  0.41760  0.00000  0.16481
      14     H     0.40511  0.40511  0.00000  0.18978
      15     H     0.42666  0.42666  0.00000  0.14669
      16     H     0.41671  0.41671  0.00000  0.16657
      17     C     3.09899  3.09899  0.00000 -0.19798
      18     H     0.41146  0.41146  0.00000  0.17708
      19     H     0.40566  0.40566  0.00000  0.18869
      20     H     0.40267  0.40267  0.00000  0.19467

   Total alpha = 32.00000, Total beta = 32.00000, Total charge = -0.00000


*** PSI4 exiting successfully. Buy a developer a beer!
