    -----------------------------------------------------------------------
          Psi4: An Open-Source Ab Initio Electronic Structure Package
                              Psi4 (no tag) Driver

                          Git: Rev {detached?}  

    J. M. Turney, A. C. Simmonett, R. M. Parrish, E. G. Hohenstein,
    F. A. Evangelista, J. T. Fermann, B. J. Mintz, L. A. Burns, J. J. Wilke,
    M. L. Abrams, N. J. Russ, M. L. Leininger, C. L. Janssen, E. T. Seidl,
    W. D. Allen, H. F. Schaefer, R. A. King, E. F. Valeev, C. D. Sherrill,
    and T. D. Crawford, WIREs Comput. Mol. Sci. 2, 556-565 (2012)
    (doi: 10.1002/wcms.93)

                         Additional Contributions by
    A. E. DePrince, M. Saitow, U. Bozkaya, A. Yu. Sokolov
    -----------------------------------------------------------------------


    Psi4 started on: Tue Jul  5 16:39:27 2016

    Process ID:   4507
    PSI4DATADIR: /export131/home/mjharvey/miniconda3/share
    Memory level set to 256.000 MB

  ==> Input File <==

--------------------------------------------------------------------------
set {
	reference rhf
	basis 6-31G*
}


set_num_threads( 1 )
memory 2 gb

molecule MOL {
0 1

O	 1.846825	 1.296220	 0.000415
C	 1.705091	 0.115954	 0.001797
C	 0.381791	 -0.609817	 0.001258
O	 2.721346	 -0.737485	 -0.000216
C	 -0.823008	 0.326187	 0.001381
H	 0.371250	 -1.265087	 -0.865474
H	 0.370908	 -1.265746	 0.867490
C	 -2.149452	 -0.435131	 -0.000098
H	 -0.770201	 0.977095	 -0.865636
H	 -0.771220	 0.975655	 0.869608
C	 -3.368779	 0.488503	 -0.000883
H	 -2.193746	 -1.087250	 -0.871175
H	 -2.195311	 -1.087803	 0.870418
C	 -4.689344	 -0.266963	 -0.144514
H	 -3.273984	 1.207876	 -0.811228
H	 -3.381709	 1.067018	 0.920144
H	 -4.721038	 -0.828573	 -1.073925
H	 -5.534295	 0.414578	 -0.141415
H	 -4.829399	 -0.970933	 0.671036
C	 4.024888	 -0.184556	 -0.001949
H	 4.179030	 0.422472	 -0.882452
H	 4.701782	 -1.024608	 -0.003642
H	 4.181981	 0.421185	 0.878906

	symmetry c1
}
set optking {
	frozen_dihedral = ("
		9 5 8 12,
		1 2 3 6,
		9 5 3 6,
		1 2 4 20
	")
}

ee = energy('scf')
oeprop('DIPOLE', 'QUADRUPOLE', 'MULLIKEN_CHARGES')
f=open( 'psi4out.xyz', 'w' )
f.write( "23  " )
f.write( str(ee) + "\n" )
f.write( MOL.save_string_xyz() )
f.close()
--------------------------------------------------------------------------

  Memory set to   2.000 GiB by Python script.

*** tstart() called on cx1-1-1-4.cx1.hpc.ic.ac.uk
*** at Tue Jul  5 16:39:27 2016


         ---------------------------------------------------------
                                   SCF
            by Justin Turney, Rob Parrish, and Andy Simmonett
                              RHF Reference
                        1 Threads,   2000 MiB Core
         ---------------------------------------------------------

  ==> Geometry <==

    Molecular point group: c1
    Full point group: C1

    Geometry (in Angstrom), charge = 0, multiplicity = 1:

       Center              X                  Y                   Z               Mass       
    ------------   -----------------  -----------------  -----------------  -----------------
           O          1.846307737015     1.295551846871     0.016969116213    15.994914619560
           C          1.704573737015     0.115285846871     0.018351116213    12.000000000000
           C          0.381273737015    -0.610485153129     0.017812116213    12.000000000000
           O          2.720828737015    -0.738153153129     0.016338116213    15.994914619560
           C         -0.823525262985     0.325518846871     0.017935116213    12.000000000000
           H          0.370732737015    -1.265755153129    -0.848919883787     1.007825032070
           H          0.370390737015    -1.266414153129     0.884044116213     1.007825032070
           C         -2.149969262985    -0.435799153129     0.016456116213    12.000000000000
           H         -0.770718262985     0.976426846871    -0.849081883787     1.007825032070
           H         -0.771737262985     0.974986846871     0.886162116213     1.007825032070
           C         -3.369296262985     0.487834846871     0.015671116213    12.000000000000
           H         -2.194263262985    -1.087918153129    -0.854620883787     1.007825032070
           H         -2.195828262985    -1.088471153129     0.886972116213     1.007825032070
           C         -4.689861262985    -0.267631153129    -0.127959883787    12.000000000000
           H         -3.274501262985     1.207207846871    -0.794673883787     1.007825032070
           H         -3.382226262985     1.066349846871     0.936698116213     1.007825032070
           H         -4.721555262985    -0.829241153129    -1.057370883787     1.007825032070
           H         -5.534812262985     0.413909846871    -0.124860883787     1.007825032070
           H         -4.829916262985    -0.971601153129     0.687590116213     1.007825032070
           C          4.024370737015    -0.185224153129     0.014605116213    12.000000000000
           H          4.178512737015     0.421803846871    -0.865897883787     1.007825032070
           H          4.701264737015    -1.025276153129     0.012912116213     1.007825032070
           H          4.181463737015     0.420516846871     0.895460116213     1.007825032070

  Running in c1 symmetry.

  Rotational constants: A =      0.23862  B =      0.01613  C =      0.01537 [cm^-1]
  Rotational constants: A =   7153.79548  B =    483.61112  C =    460.73527 [MHz]
  Nuclear repulsion =  452.141121738686991

  Charge       = 0
  Multiplicity = 1
  Electrons    = 72
  Nalpha       = 36
  Nbeta        = 36

  ==> Algorithm <==

  SCF Algorithm Type is DF.
  DIIS enabled.
  MOM disabled.
  Fractional occupation disabled.
  Guess Type is CORE.
  Energy threshold   = 1.00e-06
  Density threshold  = 1.00e-06
  Integral threshold = 0.00e+00

  ==> Primary Basis <==

  Basis Set: 6-31G*
    Number of shells: 82
    Number of basis function: 163
    Number of Cartesian functions: 163
    Spherical Harmonics?: false
    Max angular momentum: 2

  ==> Pre-Iterations <==

   -------------------------------------------------------
    Irrep   Nso     Nmo     Nalpha   Nbeta   Ndocc  Nsocc
   -------------------------------------------------------
     A        163     163       0       0       0       0
   -------------------------------------------------------
    Total     163     163      36      36      36       0
   -------------------------------------------------------

 OEINTS: Overlap, kinetic, potential, dipole, and quadrupole integrals
         stored in file 35.

  ==> Integral Setup <==

  ==> DFJK: Density-Fitted J/K Matrices <==

    J tasked:                  Yes
    K tasked:                  Yes
    wK tasked:                  No
    OpenMP threads:              1
    Integrals threads:           1
    Memory (MB):              1430
    Algorithm:                Core
    Integral Cache:           NONE
    Schwarz Cutoff:          1E-12
    Fitting Condition:       1E-12

   => Auxiliary Basis Set <=

  Basis Set: 
    Number of shells: 342
    Number of basis function: 1079
    Number of Cartesian functions: 1079
    Spherical Harmonics?: false
    Max angular momentum: 3

  Minimum eigenvalue in the overlap matrix is 2.4324673141E-03.
  Using Symmetric Orthogonalization.
  SCF Guess: Core (One-Electron) Hamiltonian.

  ==> Iterations <==

                           Total Energy        Delta E     RMS |[F,P]|

   @DF-RHF iter   1:  -273.67033320053378   -2.73670e+02   6.78238e-02 
   @DF-RHF iter   2:    28.50568687135410    3.02176e+02   8.59175e-02 DIIS
   @DF-RHF iter   3:  -231.30691557669167   -2.59813e+02   6.28987e-02 DIIS
   @DF-RHF iter   4:  -267.08465545036046   -3.57777e+01   6.03661e-02 DIIS
   @DF-RHF iter   5:  -392.94128660278824   -1.25857e+02   3.80922e-02 DIIS
   @DF-RHF iter   6:  -422.26887586103686   -2.93276e+01   7.41543e-03 DIIS
   @DF-RHF iter   7:  -422.81210896220904   -5.43233e-01   4.03570e-03 DIIS
   @DF-RHF iter   8:  -422.96541441053222   -1.53305e-01   8.99142e-04 DIIS
   @DF-RHF iter   9:  -422.97506271790968   -9.64831e-03   2.55640e-04 DIIS
   @DF-RHF iter  10:  -422.97599236115622   -9.29643e-04   9.69291e-05 DIIS
   @DF-RHF iter  11:  -422.97615104868959   -1.58688e-04   3.11515e-05 DIIS
   @DF-RHF iter  12:  -422.97617741343419   -2.63647e-05   9.43312e-06 DIIS
   @DF-RHF iter  13:  -422.97617975889983   -2.34547e-06   3.65626e-06 DIIS
   @DF-RHF iter  14:  -422.97618013796938   -3.79070e-07   1.37061e-06 DIIS
   @DF-RHF iter  15:  -422.97618020873989   -7.07705e-08   3.24569e-07 DIIS

  ==> Post-Iterations <==

    Orbital Energies (a.u.)
    -----------------------

    Doubly Occupied:                                                      

       1A    -20.603627     2A    -20.545423     3A    -11.372257  
       4A    -11.280850     5A    -11.235545     6A    -11.219287  
       7A    -11.217846     8A    -11.216431     9A    -11.209655  
      10A     -1.469325    11A     -1.362758    12A     -1.093220  
      13A     -1.043660    14A     -0.987043    15A     -0.932100  
      16A     -0.843588    17A     -0.795068    18A     -0.767287  
      19A     -0.696852    20A     -0.683865    21A     -0.671501  
      22A     -0.651698    23A     -0.609319    24A     -0.599414  
      25A     -0.572775    26A     -0.559215    27A     -0.556115  
      28A     -0.523821    29A     -0.521122    30A     -0.507694  
      31A     -0.484601    32A     -0.469698    33A     -0.466160  
      34A     -0.461275    35A     -0.455602    36A     -0.435477  

    Virtual:                                                              

      37A      0.199512    38A      0.225893    39A      0.247579  
      40A      0.264837    41A      0.273375    42A      0.277186  
      43A      0.302960    44A      0.313458    45A      0.318801  
      46A      0.323291    47A      0.327747    48A      0.335573  
      49A      0.340585    50A      0.347198    51A      0.357223  
      52A      0.374605    53A      0.394178    54A      0.397203  
      55A      0.435978    56A      0.462456    57A      0.496388  
      58A      0.540780    59A      0.584594    60A      0.696251  
      61A      0.724897    62A      0.725630    63A      0.750244  
      64A      0.756860    65A      0.760808    66A      0.779833  
      67A      0.789606    68A      0.807829    69A      0.837005  
      70A      0.856806    71A      0.872669    72A      0.928996  
      73A      0.945628    74A      0.969607    75A      0.992024  
      76A      1.018769    77A      1.029111    78A      1.033609  
      79A      1.101545    80A      1.107097    81A      1.120602  
      82A      1.122093    83A      1.130715    84A      1.133331  
      85A      1.156493    86A      1.176191    87A      1.186364  
      88A      1.189418    89A      1.206194    90A      1.207223  
      91A      1.215454    92A      1.221713    93A      1.234834  
      94A      1.242732    95A      1.251201    96A      1.273837  
      97A      1.289287    98A      1.301924    99A      1.348256  
     100A      1.380872   101A      1.425972   102A      1.547862  
     103A      1.564551   104A      1.625085   105A      1.660353  
     106A      1.664461   107A      1.724723   108A      1.736213  
     109A      1.798398   110A      1.799729   111A      1.852408  
     112A      1.883481   113A      1.944503   114A      1.978278  
     115A      2.022629   116A      2.042760   117A      2.098473  
     118A      2.139712   119A      2.165020   120A      2.171564  
     121A      2.228317   122A      2.248066   123A      2.255220  
     124A      2.278744   125A      2.314709   126A      2.319691  
     127A      2.327399   128A      2.359906   129A      2.387600  
     130A      2.403016   131A      2.407115   132A      2.448297  
     133A      2.484865   134A      2.560155   135A      2.572586  
     136A      2.619969   137A      2.646507   138A      2.666525  
     139A      2.699010   140A      2.720310   141A      2.750161  
     142A      2.773121   143A      2.829446   144A      2.840008  
     145A      2.914323   146A      2.946099   147A      2.982843  
     148A      3.067244   149A      3.093912   150A      3.139243  
     151A      3.181572   152A      3.349637   153A      3.453902  
     154A      3.582942   155A      4.415298   156A      4.548897  
     157A      4.609064   158A      4.643577   159A      4.709243  
     160A      4.762344   161A      4.832284   162A      4.910812  
     163A      5.030888  

    Final Occupation by Irrep:
              A 
    DOCC [    36 ]

  Energy converged.

  @DF-RHF Final Energy:  -422.97618020873989

   => Energetics <=

    Nuclear Repulsion Energy =            452.1411217386869907
    One-Electron Energy =               -1471.9922450557048705
    Two-Electron Energy =                 596.8749431082765113
    DFT Exchange-Correlation Energy =       0.0000000000000000
    Empirical Dispersion Energy =           0.0000000000000000
    PCM Polarization Energy =               0.0000000000000000
    EFP Energy =                            0.0000000000000000
    Total Energy =                       -422.9761802087414253

    Alert: EFP and PCM quantities not currently incorporated into SCF psivars.

Properties will be evaluated at   0.000000,   0.000000,   0.000000 Bohr
  ==> Properties <==


Properties computed using the SCF density matrix

  Nuclear Dipole Moment: (a.u.)
     X:   -12.9838      Y:    -1.9224      Z:    -0.1926

  Electronic Dipole Moment: (a.u.)
     X:    13.0912      Y:     1.2472      Z:     0.1956

  Dipole Moment: (a.u.)
     X:     0.1074      Y:    -0.6751      Z:     0.0031     Total:     0.6836

  Dipole Moment: (Debye)
     X:     0.2730      Y:    -1.7161      Z:     0.0078     Total:     1.7377


  Saving occupied orbitals to File 180.

*** tstop() called on cx1-1-1-4.cx1.hpc.ic.ac.uk at Tue Jul  5 16:39:51 2016
Module time:
	user time   =      23.16 seconds =       0.39 minutes
	system time =       0.27 seconds =       0.00 minutes
	total time  =         24 seconds =       0.40 minutes
Total time:
	user time   =      23.16 seconds =       0.39 minutes
	system time =       0.27 seconds =       0.00 minutes
	total time  =         24 seconds =       0.40 minutes


Properties will be evaluated at   0.000000,   0.000000,   0.000000 Bohr

Properties computed using the  density matrix

  Nuclear Dipole Moment: (a.u.)
     X:   -12.9838      Y:    -1.9224      Z:    -0.1926

  Electronic Dipole Moment: (a.u.)
     X:    13.0912      Y:     1.2472      Z:     0.1956

  Dipole Moment: (a.u.)
     X:     0.1074      Y:    -0.6751      Z:     0.0031     Total:     0.6836

  Dipole Moment: (Debye)
     X:     0.2730      Y:    -1.7161      Z:     0.0078     Total:     1.7377

  Quadrupole Moment: (Debye Ang)
    XX:   -49.5388     YY:   -62.1675     ZZ:   -55.1485
    XY:    -2.8827     XZ:    -0.0663     YZ:    -0.0671

  Traceless Quadrupole Moment: (Debye Ang)
    XX:     6.0794     YY:    -6.5492     ZZ:     0.4698
    XY:    -2.8827     XZ:    -0.0663     YZ:    -0.0671

  Mulliken Charges: (a.u.)
   Center  Symbol    Alpha    Beta     Spin     Total
       1     O     4.28609  4.28609  0.00000 -0.57219
       2     C     2.60487  2.60487  0.00000  0.79027
       3     C     3.20824  3.20824  0.00000 -0.41648
       4     O     4.30741  4.30741  0.00000 -0.61481
       5     C     3.15249  3.15249  0.00000 -0.30498
       6     H     0.40059  0.40059  0.00000  0.19883
       7     H     0.40069  0.40069  0.00000  0.19863
       8     C     3.15339  3.15339  0.00000 -0.30678
       9     H     0.41165  0.41165  0.00000  0.17671
      10     H     0.41176  0.41176  0.00000  0.17648
      11     C     3.15161  3.15161  0.00000 -0.30321
      12     H     0.42418  0.42418  0.00000  0.15164
      13     H     0.42375  0.42375  0.00000  0.15250
      14     C     3.23961  3.23961  0.00000 -0.47922
      15     H     0.42129  0.42129  0.00000  0.15741
      16     H     0.42125  0.42125  0.00000  0.15750
      17     H     0.42176  0.42176  0.00000  0.15649
      18     H     0.41851  0.41851  0.00000  0.16299
      19     H     0.42187  0.42187  0.00000  0.15627
      20     C     3.09245  3.09245  0.00000 -0.18489
      21     H     0.40906  0.40906  0.00000  0.18189
      22     H     0.40843  0.40843  0.00000  0.18315
      23     H     0.40910  0.40910  0.00000  0.18181

   Total alpha = 36.00000, Total beta = 36.00000, Total charge =  0.00000


*** PSI4 exiting successfully. Buy a developer a beer!
