    -----------------------------------------------------------------------
          Psi4: An Open-Source Ab Initio Electronic Structure Package
                              Psi4 (no tag) Driver

                          Git: Rev {detached?}  

    J. M. Turney, A. C. Simmonett, R. M. Parrish, E. G. Hohenstein,
    F. A. Evangelista, J. T. Fermann, B. J. Mintz, L. A. Burns, J. J. Wilke,
    M. L. Abrams, N. J. Russ, M. L. Leininger, C. L. Janssen, E. T. Seidl,
    W. D. Allen, H. F. Schaefer, R. A. King, E. F. Valeev, C. D. Sherrill,
    and T. D. Crawford, WIREs Comput. Mol. Sci. 2, 556-565 (2012)
    (doi: 10.1002/wcms.93)

                         Additional Contributions by
    A. E. DePrince, M. Saitow, U. Bozkaya, A. Yu. Sokolov
    -----------------------------------------------------------------------


    Psi4 started on: Tue Jul  5 16:35:35 2016

    Process ID:  18294
    PSI4DATADIR: /export131/home/mjharvey/miniconda3/share
    Memory level set to 256.000 MB

  ==> Input File <==

--------------------------------------------------------------------------
set {
	reference rhf
	basis 6-31G*
}


set_num_threads( 1 )
memory 2 gb

molecule MOL {
0 1

O	 -0.806752	 -1.114546	 1.082146
C	 -0.561929	 -0.074560	 0.531515
C	 -1.597472	 1.034011	 0.503089
N	 0.623947	 0.147590	 -0.102813
H	 -1.868528	 1.298769	 -0.513038
H	 -2.472791	 0.671041	 1.019920
H	 -1.237628	 1.928840	 0.999450
C	 0.820163	 -0.413612	 -1.425094
C	 1.825936	 0.600459	 0.562303
H	 1.726226	 -0.005919	 -1.859667
H	 -0.019684	 -0.162652	 -2.049287
H	 0.916897	 -1.496388	 -1.384364
H	 2.408653	 1.198998	 -0.127791
H	 1.598347	 1.217312	 1.417071
H	 2.446256	 -0.231308	 0.891210

	symmetry c1
}
set optking {
	frozen_dihedral = ("
		2 4 8 10
	")
}

ee = energy('scf')
oeprop('DIPOLE', 'QUADRUPOLE', 'MULLIKEN_CHARGES')
f=open( 'psi4out.xyz', 'w' )
f.write( "15  " )
f.write( str(ee) + "\n" )
f.write( MOL.save_string_xyz() )
f.close()
--------------------------------------------------------------------------

  Memory set to   2.000 GiB by Python script.

*** tstart() called on cx1-3-2-1.cx1.hpc.ic.ac.uk
*** at Tue Jul  5 16:35:36 2016


         ---------------------------------------------------------
                                   SCF
            by Justin Turney, Rob Parrish, and Andy Simmonett
                              RHF Reference
                        1 Threads,   2000 MiB Core
         ---------------------------------------------------------

  ==> Geometry <==

    Molecular point group: c1
    Full point group: C1

    Geometry (in Angstrom), charge = 0, multiplicity = 1:

       Center              X                  Y                   Z               Mass       
    ------------   -----------------  -----------------  -----------------  -----------------
           O         -0.866460686693    -1.142667460897     0.894801092559    15.994914619560
           C         -0.621637686693    -0.102681460897     0.344170092559    12.000000000000
           C         -1.657180686693     1.005889539103     0.315744092559    12.000000000000
           N          0.564238313307     0.119468539103    -0.290157907441    14.003074004780
           H         -1.928236686693     1.270647539103    -0.700382907441     1.007825032070
           H         -2.532499686693     0.642919539103     0.832575092559     1.007825032070
           H         -1.297336686693     1.900718539103     0.812105092559     1.007825032070
           C          0.760454313307    -0.441733460897    -1.612438907441    12.000000000000
           C          1.766227313307     0.572337539103     0.374958092559    12.000000000000
           H          1.666517313307    -0.034040460897    -2.047011907441     1.007825032070
           H         -0.079392686693    -0.190773460897    -2.236631907441     1.007825032070
           H          0.857188313307    -1.524509460897    -1.571708907441     1.007825032070
           H          2.348944313307     1.170876539103    -0.315135907441     1.007825032070
           H          1.538638313307     1.189190539103     1.229726092559     1.007825032070
           H          2.386547313307    -0.259429460897     0.703865092559     1.007825032070

  Running in c1 symmetry.

  Rotational constants: A =      0.16706  B =      0.08884  C =      0.08598 [cm^-1]
  Rotational constants: A =   5008.21141  B =   2663.29464  C =   2577.70137 [MHz]
  Nuclear repulsion =  250.831840660532976

  Charge       = 0
  Multiplicity = 1
  Electrons    = 48
  Nalpha       = 24
  Nbeta        = 24

  ==> Algorithm <==

  SCF Algorithm Type is DF.
  DIIS enabled.
  MOM disabled.
  Fractional occupation disabled.
  Guess Type is CORE.
  Energy threshold   = 1.00e-06
  Density threshold  = 1.00e-06
  Integral threshold = 0.00e+00

  ==> Primary Basis <==

  Basis Set: 6-31G*
    Number of shells: 54
    Number of basis function: 108
    Number of Cartesian functions: 108
    Spherical Harmonics?: false
    Max angular momentum: 2

  ==> Pre-Iterations <==

   -------------------------------------------------------
    Irrep   Nso     Nmo     Nalpha   Nbeta   Ndocc  Nsocc
   -------------------------------------------------------
     A        108     108       0       0       0       0
   -------------------------------------------------------
    Total     108     108      24      24      24       0
   -------------------------------------------------------

 OEINTS: Overlap, kinetic, potential, dipole, and quadrupole integrals
         stored in file 35.

  ==> Integral Setup <==

  ==> DFJK: Density-Fitted J/K Matrices <==

    J tasked:                  Yes
    K tasked:                  Yes
    wK tasked:                  No
    OpenMP threads:              1
    Integrals threads:           1
    Memory (MB):              1430
    Algorithm:                Core
    Integral Cache:           NONE
    Schwarz Cutoff:          1E-12
    Fitting Condition:       1E-12

   => Auxiliary Basis Set <=

  Basis Set: 
    Number of shells: 225
    Number of basis function: 711
    Number of Cartesian functions: 711
    Spherical Harmonics?: false
    Max angular momentum: 3

  Minimum eigenvalue in the overlap matrix is 4.0105225013E-03.
  Using Symmetric Orthogonalization.
  SCF Guess: Core (One-Electron) Hamiltonian.

  ==> Iterations <==

                           Total Energy        Delta E     RMS |[F,P]|

   @DF-RHF iter   1:  -203.26869717267158   -2.03269e+02   8.93288e-02 
   @DF-RHF iter   2:  -228.63460242012786   -2.53659e+01   4.63927e-02 DIIS
   @DF-RHF iter   3:  -224.89792266732468    3.73668e+00   7.48894e-02 DIIS
   @DF-RHF iter   4:  -268.41928566553884   -4.35214e+01   4.85659e-02 DIIS
   @DF-RHF iter   5:  -276.16010367078513   -7.74082e+00   3.80843e-02 DIIS
   @DF-RHF iter   6:  -281.06459856817776   -4.90449e+00   2.50992e-02 DIIS
   @DF-RHF iter   7:  -284.53432273167357   -3.46972e+00   1.40512e-02 DIIS
   @DF-RHF iter   8:  -285.71681341757221   -1.18249e+00   5.81547e-03 DIIS
   @DF-RHF iter   9:  -285.97160013474490   -2.54787e-01   1.43931e-03 DIIS
   @DF-RHF iter  10:  -285.98940439175101   -1.78043e-02   5.57002e-04 DIIS
   @DF-RHF iter  11:  -285.99234731279228   -2.94292e-03   2.59818e-04 DIIS
   @DF-RHF iter  12:  -285.99298125765222   -6.33945e-04   7.63455e-05 DIIS
   @DF-RHF iter  13:  -285.99310120195503   -1.19944e-04   4.60795e-05 DIIS
   @DF-RHF iter  14:  -285.99313079962587   -2.95977e-05   1.13132e-05 DIIS
   @DF-RHF iter  15:  -285.99313347185648   -2.67223e-06   3.33195e-06 DIIS
   @DF-RHF iter  16:  -285.99313373843029   -2.66574e-07   1.41336e-06 DIIS
   @DF-RHF iter  17:  -285.99313379019748   -5.17672e-08   6.64995e-07 DIIS

  ==> Post-Iterations <==

    Orbital Energies (a.u.)
    -----------------------

    Doubly Occupied:                                                      

       1A    -20.547884     2A    -15.546086     3A    -11.348016  
       4A    -11.258526     5A    -11.255586     6A    -11.224781  
       7A     -1.399408     8A     -1.233081     9A     -1.007029  
      10A     -0.970800    11A     -0.915440    12A     -0.738032  
      13A     -0.675642    14A     -0.658119    15A     -0.641584  
      16A     -0.597753    17A     -0.583474    18A     -0.576319  
      19A     -0.560878    20A     -0.545721    21A     -0.532102  
      22A     -0.483271    23A     -0.425404    24A     -0.349262  

    Virtual:                                                              

      25A      0.164509    26A      0.218410    27A      0.261632  
      28A      0.277096    29A      0.297475    30A      0.316455  
      31A      0.321574    32A      0.324984    33A      0.340970  
      34A      0.353033    35A      0.367947    36A      0.413166  
      37A      0.427177    38A      0.498505    39A      0.602186  
      40A      0.707343    41A      0.733785    42A      0.753359  
      43A      0.761381    44A      0.763451    45A      0.821702  
      46A      0.827863    47A      0.836559    48A      0.923878  
      49A      0.962158    50A      0.986623    51A      1.008971  
      52A      1.026024    53A      1.100425    54A      1.118559  
      55A      1.124897    56A      1.128261    57A      1.146431  
      58A      1.170187    59A      1.185330    60A      1.208551  
      61A      1.236291    62A      1.248033    63A      1.255518  
      64A      1.270863    65A      1.325490    66A      1.344168  
      67A      1.356264    68A      1.378557    69A      1.532791  
      70A      1.570014    71A      1.698525    72A      1.735483  
      73A      1.749284    74A      1.920494    75A      1.966149  
      76A      1.981420    77A      2.102574    78A      2.120627  
      79A      2.164675    80A      2.195746    81A      2.213088  
      82A      2.299634    83A      2.329424    84A      2.340804  
      85A      2.383408    86A      2.421148    87A      2.437964  
      88A      2.485199    89A      2.553054    90A      2.595219  
      91A      2.604737    92A      2.659926    93A      2.736814  
      94A      2.758771    95A      2.810385    96A      2.881723  
      97A      2.956289    98A      3.108723    99A      3.208395  
     100A      3.288008   101A      3.360843   102A      3.469546  
     103A      4.396051   104A      4.520463   105A      4.594092  
     106A      4.660644   107A      4.828597   108A      4.898744  

    Final Occupation by Irrep:
              A 
    DOCC [    24 ]

  Energy converged.

  @DF-RHF Final Energy:  -285.99313379019748

   => Energetics <=

    Nuclear Repulsion Energy =            250.8318406605329756
    One-Electron Energy =                -885.5014153479972947
    Two-Electron Energy =                 348.6764408972665024
    DFT Exchange-Correlation Energy =       0.0000000000000000
    Empirical Dispersion Energy =           0.0000000000000000
    PCM Polarization Energy =               0.0000000000000000
    EFP Energy =                            0.0000000000000000
    Total Energy =                       -285.9931337901978168

    Alert: EFP and PCM quantities not currently incorporated into SCF psivars.

Properties will be evaluated at   0.000000,   0.000000,   0.000000 Bohr
  ==> Properties <==


Properties computed using the SCF density matrix

  Nuclear Dipole Moment: (a.u.)
     X:     2.7695      Y:     3.8993      Z:    -3.0816

  Electronic Dipole Moment: (a.u.)
     X:    -2.3110      Y:    -2.9227      Z:     2.4680

  Dipole Moment: (a.u.)
     X:     0.4585      Y:     0.9766      Z:    -0.6136     Total:     1.2411

  Dipole Moment: (Debye)
     X:     1.1654      Y:     2.4822      Z:    -1.5596     Total:     3.1546


  Saving occupied orbitals to File 180.

*** tstop() called on cx1-3-2-1.cx1.hpc.ic.ac.uk at Tue Jul  5 16:35:43 2016
Module time:
	user time   =       7.14 seconds =       0.12 minutes
	system time =       0.05 seconds =       0.00 minutes
	total time  =          7 seconds =       0.12 minutes
Total time:
	user time   =       7.14 seconds =       0.12 minutes
	system time =       0.05 seconds =       0.00 minutes
	total time  =          7 seconds =       0.12 minutes


Properties will be evaluated at   0.000000,   0.000000,   0.000000 Bohr

Properties computed using the  density matrix

  Nuclear Dipole Moment: (a.u.)
     X:     2.7695      Y:     3.8993      Z:    -3.0816

  Electronic Dipole Moment: (a.u.)
     X:    -2.3110      Y:    -2.9227      Z:     2.4680

  Dipole Moment: (a.u.)
     X:     0.4585      Y:     0.9766      Z:    -0.6136     Total:     1.2411

  Dipole Moment: (Debye)
     X:     1.1654      Y:     2.4822      Z:    -1.5596     Total:     3.1546

  Quadrupole Moment: (Debye Ang)
    XX:   -35.4569     YY:   -40.4538     ZZ:   -36.9454
    XY:    -2.0331     XZ:     1.0990     YZ:     3.5407

  Traceless Quadrupole Moment: (Debye Ang)
    XX:     2.1618     YY:    -2.8351     ZZ:     0.6733
    XY:    -2.0331     XZ:     1.0990     YZ:     3.5407

  Mulliken Charges: (a.u.)
   Center  Symbol    Alpha    Beta     Spin     Total
       1     O     4.25051  4.25051  0.00000 -0.50103
       2     C     2.66311  2.66311  0.00000  0.67378
       3     C     3.27810  3.27810  0.00000 -0.55620
       4     N     3.82950  3.82950  0.00000 -0.65901
       5     H     0.40837  0.40837  0.00000  0.18326
       6     H     0.40029  0.40029  0.00000  0.19943
       7     H     0.40855  0.40855  0.00000  0.18290
       8     C     3.13629  3.13629  0.00000 -0.27257
       9     C     3.13137  3.13137  0.00000 -0.26273
      10     H     0.41429  0.41429  0.00000  0.17142
      11     H     0.41685  0.41685  0.00000  0.16630
      12     H     0.41383  0.41383  0.00000  0.17234
      13     H     0.41661  0.41661  0.00000  0.16679
      14     H     0.41462  0.41462  0.00000  0.17076
      15     H     0.41772  0.41772  0.00000  0.16456

   Total alpha = 24.00000, Total beta = 24.00000, Total charge = -0.00000


*** PSI4 exiting successfully. Buy a developer a beer!
