    -----------------------------------------------------------------------
          Psi4: An Open-Source Ab Initio Electronic Structure Package
                              Psi4 1.0.54 Driver

                          Git: Rev {master} 8d4cec3 dirty

    J. M. Turney, A. C. Simmonett, R. M. Parrish, E. G. Hohenstein,
    F. A. Evangelista, J. T. Fermann, B. J. Mintz, L. A. Burns, J. J. Wilke,
    M. L. Abrams, N. J. Russ, M. L. Leininger, C. L. Janssen, E. T. Seidl,
    W. D. Allen, H. F. Schaefer, R. A. King, E. F. Valeev, C. D. Sherrill,
    and T. D. Crawford, WIREs Comput. Mol. Sci. 2, 556-565 (2012)
    (doi: 10.1002/wcms.93)

                         Additional Contributions by
    A. E. DePrince, U. Bozkaya, A. Yu. Sokolov, D. G. A. Smith, R. Di Remigio,
    R. M. Richard, J. F. Gonthier, H. R. McAlexander, M. Saitow, and
    B. P. Pritchard
    -----------------------------------------------------------------------


    Psi4 started on: Tue Dec 12 14:33:21 2017

    Process ID:  29280
    PSI4DATADIR: /opt/acellera/miniconda3/share/psi4
    Memory level set to 256.000 MB

  ==> Input File <==

--------------------------------------------------------------------------
set_num_threads(1)
set_memory(3145728000)

set { reference rks }
set { basis 6-31G* }

molecule MOL {
    1 1
    noreorient
    nocom
    symmetry c1
    C    0.000000   0.000000  -0.177864
    C    0.036678   1.219374   0.524165
    C    0.031764   1.213119   1.915444
    C   -0.000000  -0.000000   2.610107
    C   -0.031764  -1.213119   1.915444
    C   -0.036677  -1.219374   0.524165
    C    0.000000  -0.000000  -1.644734
    H    0.018170   2.164705  -0.010853
    H    0.042402   2.152895   2.457886
    H   -0.000000  -0.000000   3.695756
    H   -0.042402  -2.152895   2.457886
    H   -0.018170  -2.164705  -0.010853
    N   -0.712590  -0.905950  -2.308460
    N    0.712590   0.905950  -2.308461
    H    0.673432   1.006469  -3.315997
    H    1.377190   1.485970  -1.813317
    H   -0.256768  -1.723526  -2.691971
    H   -1.720586  -0.854981  -2.398525
}

set optking { frozen_dihedral = (" 1 7 13 17 ") }

set optking { dynamic_level = 1 
 geom_maxiter = 250
 print_trajectory_xyz_file = True }

energy, wfn = optimize('B3LYP-D3', return_wfn=True)

import os
os.chdir(os.environ['HTMD_PSI4_WORKDIR'])

oeprop(wfn, 'DIPOLE', 'QUADRUPOLE', 'MULLIKEN_CHARGES')

with open('psi4out.xyz', 'w') as f:
    f.write('18 ' )
    f.write('%.12f\n' % energy)
    f.write(MOL.save_string_xyz())
--------------------------------------------------------------------------

  Memory set to   3.146 GiB by Python script.
gradient() will perform analytic gradient computation.

*** tstart() called on computer04
*** at Tue Dec 12 14:33:24 2017


         ---------------------------------------------------------
                                   SCF
            by Justin Turney, Rob Parrish, and Andy Simmonett
                              RKS Reference
                        1 Threads,   3145 MiB Core
         ---------------------------------------------------------

  ==> Geometry <==

    Molecular point group: c1
    Full point group: C1

    Geometry (in Angstrom), charge = 1, multiplicity = 1:

       Center              X                  Y                   Z               Mass       
    ------------   -----------------  -----------------  -----------------  -----------------
           C          0.000000000000     0.000000000000    -0.177864000000    12.000000000000
           C          0.036678000000     1.219374000000     0.524165000000    12.000000000000
           C          0.031764000000     1.213119000000     1.915444000000    12.000000000000
           C          0.000000000000     0.000000000000     2.610107000000    12.000000000000
           C         -0.031764000000    -1.213119000000     1.915444000000    12.000000000000
           C         -0.036677000000    -1.219374000000     0.524165000000    12.000000000000
           C          0.000000000000     0.000000000000    -1.644734000000    12.000000000000
           H          0.018170000000     2.164705000000    -0.010853000000     1.007825032070
           H          0.042402000000     2.152895000000     2.457886000000     1.007825032070
           H          0.000000000000     0.000000000000     3.695756000000     1.007825032070
           H         -0.042402000000    -2.152895000000     2.457886000000     1.007825032070
           H         -0.018170000000    -2.164705000000    -0.010853000000     1.007825032070
           N         -0.712590000000    -0.905950000000    -2.308460000000    14.003074004780
           N          0.712590000000     0.905950000000    -2.308461000000    14.003074004780
           H          0.673432000000     1.006469000000    -3.315997000000     1.007825032070
           H          1.377190000000     1.485970000000    -1.813317000000     1.007825032070
           H         -0.256768000000    -1.723526000000    -2.691971000000     1.007825032070
           H         -1.720586000000    -0.854981000000    -2.398525000000     1.007825032070

  Running in c1 symmetry.

  Rotational constants: A =      0.12088  B =      0.03960  C =      0.03136 [cm^-1]
  Rotational constants: A =   3623.98297  B =   1187.11040  C =    940.08842 [MHz]
  Nuclear repulsion =  416.629345676329478

  Charge       = 1
  Multiplicity = 1
  Electrons    = 64
  Nalpha       = 32
  Nbeta        = 32

  ==> Algorithm <==

  SCF Algorithm Type is DF.
  DIIS enabled.
  MOM disabled.
  Fractional occupation disabled.
  Guess Type is SAD.
  Energy threshold   = 1.00e-08
  Density threshold  = 1.00e-08
  Integral threshold = 0.00e+00

  ==> Primary Basis <==

  Basis Set: 6-31G*
    Number of shells: 72
    Number of basis function: 153
    Number of Cartesian functions: 153
    Spherical Harmonics?: false
    Max angular momentum: 2

  ==> DFT Potential <==

   => B3LYP-D3 Composite Functional <= 

    B3LYP Hybrid-GGA Exchange-Correlation Functional (VWN1-RPA)

    P.J. Stephens et. al., J. Phys. Chem., 98, 11623-11627, 1994

    Points   =           5000
    Deriv    =              1
    GGA      =           TRUE
    Meta     =          FALSE

    X_LRC        =          FALSE
    X_Hybrid     =           TRUE
    X_Alpha      =   2.000000E-01
    X_Omega      =   0.000000E+00
    C_LRC        =          FALSE
    C_Hybrid     =          FALSE
    C_Alpha      =   0.000000E+00
    C_Omega      =   0.000000E+00

   => Exchange Functionals <=

    0.8000    B3_X
    0.2000      HF 

   => Correlation Functionals <=

    0.1900 VWN3RPA_C
    0.8100   LYP_C

   => -D3ZERO: Empirical Dispersion <=

    Grimme's -D3 (zero-damping) Dispersion Correction

    Grimme S.; Antony J.; Ehrlich S.; Krieg H. (2010), J. Chem. Phys., 132: 154104

    S6  =   1.000000E+00
    S8  =   1.703000E+00
    SR6 =   1.261000E+00
    A6  =   1.400000E+01

   => Molecular Quadrature <=

    Radial Scheme    =       TREUTLER
    Pruning Scheme   =           FLAT
    Nuclear Scheme   =       TREUTLER

    BS radius alpha  =              1
    Pruning alpha    =              1
    Radial Points    =             75
    Spherical Points =            302
    Total Points     =         397104
    Total Blocks     =            369
    Max Points       =           5000
    Max Functions    =            151

  ==> Pre-Iterations <==

   -------------------------------------------------------
    Irrep   Nso     Nmo     Nalpha   Nbeta   Ndocc  Nsocc
   -------------------------------------------------------
     A        153     153       0       0       0       0
   -------------------------------------------------------
    Total     153     153      32      32      32       0
   -------------------------------------------------------

  ==> Integral Setup <==

  ==> DFJK: Density-Fitted J/K Matrices <==

    J tasked:                  Yes
    K tasked:                  Yes
    wK tasked:                  No
    OpenMP threads:              1
    Integrals threads:           1
    Memory (MB):              2250
    Algorithm:                Core
    Integral Cache:           NONE
    Schwarz Cutoff:          1E-12
    Fitting Condition:       1E-12

   => Auxiliary Basis Set <=

  Basis Set: 
    Number of shells: 297
    Number of basis function: 954
    Number of Cartesian functions: 954
    Spherical Harmonics?: false
    Max angular momentum: 3

  Minimum eigenvalue in the overlap matrix is 4.8689745882E-04.
  Using Symmetric Orthogonalization.
  SCF Guess: Superposition of Atomic Densities via on-the-fly atomic UHF.

  ==> Iterations <==

                           Total Energy        Delta E     RMS |[F,P]|

   @DF-RKS iter   0:  -380.50667339982766   -3.80507e+02   3.50568e-02 
   @DF-RKS iter   1:  -381.08034838155180   -5.73675e-01   5.51585e-03 
   @DF-RKS iter   2:  -381.01653059463496    6.38178e-02   6.07412e-03 DIIS
   @DF-RKS iter   3:  -381.42617678316270   -4.09646e-01   7.07296e-04 DIIS
   @DF-RKS iter   4:  -381.43054279369568   -4.36601e-03   3.04703e-04 DIIS
   @DF-RKS iter   5:  -381.43149806709488   -9.55273e-04   9.21269e-05 DIIS
   @DF-RKS iter   6:  -381.43157345786352   -7.53908e-05   3.76718e-05 DIIS
   @DF-RKS iter   7:  -381.43158855987946   -1.51020e-05   8.55142e-06 DIIS
   @DF-RKS iter   8:  -381.43158937302138   -8.13142e-07   3.35645e-06 DIIS
   @DF-RKS iter   9:  -381.43158950141623   -1.28395e-07   1.17810e-06 DIIS
   @DF-RKS iter  10:  -381.43158951935249   -1.79363e-08   2.70300e-07 DIIS
   @DF-RKS iter  11:  -381.43158952035225   -9.99762e-10   4.91572e-08 DIIS
   @DF-RKS iter  12:  -381.43158952037294   -2.06910e-11   3.47939e-08 DIIS
   @DF-RKS iter  13:  -381.43158952038829   -1.53477e-11   9.61811e-09 DIIS

  ==> Post-Iterations <==

    Orbital Energies (a.u.)
    -----------------------

    Doubly Occupied:                                                      

       1A    -14.584373     2A    -14.518467     3A    -10.497940  
       4A    -10.370907     5A    -10.359175     6A    -10.358029  
       7A    -10.349060     8A    -10.343214     9A    -10.342422  
      10A     -1.176963    11A     -1.079084    12A     -1.015531  
      13A     -0.925339    14A     -0.904102    15A     -0.841200  
      16A     -0.777402    17A     -0.768002    18A     -0.741052  
      19A     -0.716147    20A     -0.709289    21A     -0.671733  
      22A     -0.628957    23A     -0.607026    24A     -0.585403  
      25A     -0.578339    26A     -0.552907    27A     -0.519092  
      28A     -0.509022    29A     -0.499831    30A     -0.440811  
      31A     -0.415541    32A     -0.407282  

    Virtual:                                                              

      33A     -0.252473    34A     -0.157114    35A     -0.142166  
      36A     -0.096451    37A     -0.072320    38A     -0.048073  
      39A     -0.037350    40A     -0.005801    41A      0.005333  
      42A      0.010559    43A      0.022993    44A      0.056197  
      45A      0.061057    46A      0.094699    47A      0.132712  
      48A      0.138211    49A      0.155679    50A      0.161186  
      51A      0.210775    52A      0.240400    53A      0.299434  
      54A      0.354039    55A      0.362105    56A      0.380601  
      57A      0.394219    58A      0.402042    59A      0.414591  
      60A      0.422732    61A      0.439998    62A      0.448459  
      63A      0.454588    64A      0.469188    65A      0.471120  
      66A      0.482220    67A      0.488992    68A      0.507631  
      69A      0.531367    70A      0.543169    71A      0.551051  
      72A      0.577733    73A      0.623012    74A      0.630567  
      75A      0.667112    76A      0.684817    77A      0.688868  
      78A      0.701983    79A      0.715256    80A      0.722972  
      81A      0.737999    82A      0.748294    83A      0.770592  
      84A      0.775493    85A      0.808201    86A      0.825250  
      87A      0.849924    88A      0.899931    89A      0.951438  
      90A      0.961676    91A      0.987071    92A      1.016077  
      93A      1.044965    94A      1.082021    95A      1.138752  
      96A      1.152304    97A      1.247510    98A      1.273431  
      99A      1.279791   100A      1.307876   101A      1.320786  
     102A      1.339601   103A      1.358164   104A      1.380531  
     105A      1.435325   106A      1.499889   107A      1.534652  
     108A      1.551212   109A      1.625624   110A      1.665285  
     111A      1.711111   112A      1.721223   113A      1.749589  
     114A      1.772283   115A      1.806023   116A      1.827172  
     117A      1.892715   118A      1.952719   119A      1.965357  
     120A      1.975320   121A      1.995760   122A      2.017153  
     123A      2.024020   124A      2.047931   125A      2.115469  
     126A      2.128777   127A      2.151667   128A      2.194462  
     129A      2.227152   130A      2.331769   131A      2.368028  
     132A      2.414493   133A      2.446685   134A      2.462597  
     135A      2.484398   136A      2.512645   137A      2.555834  
     138A      2.582416   139A      2.597281   140A      2.624712  
     141A      2.733820   142A      2.837927   143A      2.979572  
     144A      3.255684   145A      3.619055   146A      3.703114  
     147A      3.911563   148A      3.943786   149A      3.961690  
     150A      4.042030   151A      4.171276   152A      4.249801  
     153A      4.543902  

    Final Occupation by Irrep:
              A 
    DOCC [    32 ]

  Energy converged.

  @DF-RKS Final Energy:  -381.43158952038829

   => Energetics <=

    Nuclear Repulsion Energy =            416.6293456763294785
    One-Electron Energy =               -1328.5832622504171923
    Two-Electron Energy =                 574.9450864159175580
    DFT Exchange-Correlation Energy =     -44.4108625422182044
    Empirical Dispersion Energy =          -0.0118968200000000
    PCM Polarization Energy =               0.0000000000000000
    EFP Energy =                            0.0000000000000000
    Total Energy =                       -381.4315895203883997


  Saving occupied orbitals to File 180.

*** tstop() called on computer04 at Tue Dec 12 14:34:53 2017
Module time:
	user time   =      88.35 seconds =       1.47 minutes
	system time =       0.41 seconds =       0.01 minutes
	total time  =         89 seconds =       1.48 minutes
Total time:
	user time   =      88.35 seconds =       1.47 minutes
	system time =       0.41 seconds =       0.01 minutes
	total time  =         89 seconds =       1.48 minutes


Properties will be evaluated at   0.000000,   0.000000,   0.000000 Bohr

Properties computed using the SCF density matrix

  Nuclear Dipole Moment: (a.u.)
     X:     0.1385      Y:    -0.1626      Z:     0.0981

  Electronic Dipole Moment: (a.u.)
     X:     0.1061      Y:     0.3357      Z:    -2.0460

  Dipole Moment: (a.u.)
     X:     0.2445      Y:     0.1731      Z:    -1.9479     Total:     1.9708

  Dipole Moment: (Debye)
     X:     0.6215      Y:     0.4399      Z:    -4.9510     Total:     5.0092


*** tstart() called on computer04
*** at Tue Dec 12 14:34:53 2017


         ------------------------------------------------------------
                                   SCF GRAD                          
                          Rob Parrish, Justin Turney,                
                       Andy Simmonett, and Alex Sokolov              
         ------------------------------------------------------------

  ==> Geometry <==

    Molecular point group: c1
    Full point group: C1

    Geometry (in Angstrom), charge = 1, multiplicity = 1:

       Center              X                  Y                   Z               Mass       
    ------------   -----------------  -----------------  -----------------  -----------------
           C          0.000000000000     0.000000000000    -0.177864000000    12.000000000000
           C          0.036678000000     1.219374000000     0.524165000000    12.000000000000
           C          0.031764000000     1.213119000000     1.915444000000    12.000000000000
           C          0.000000000000     0.000000000000     2.610107000000    12.000000000000
           C         -0.031764000000    -1.213119000000     1.915444000000    12.000000000000
           C         -0.036677000000    -1.219374000000     0.524165000000    12.000000000000
           C          0.000000000000     0.000000000000    -1.644734000000    12.000000000000
           H          0.018170000000     2.164705000000    -0.010853000000     1.007825032070
           H          0.042402000000     2.152895000000     2.457886000000     1.007825032070
           H          0.000000000000     0.000000000000     3.695756000000     1.007825032070
           H         -0.042402000000    -2.152895000000     2.457886000000     1.007825032070
           H         -0.018170000000    -2.164705000000    -0.010853000000     1.007825032070
           N         -0.712590000000    -0.905950000000    -2.308460000000    14.003074004780
           N          0.712590000000     0.905950000000    -2.308461000000    14.003074004780
           H          0.673432000000     1.006469000000    -3.315997000000     1.007825032070
           H          1.377190000000     1.485970000000    -1.813317000000     1.007825032070
           H         -0.256768000000    -1.723526000000    -2.691971000000     1.007825032070
           H         -1.720586000000    -0.854981000000    -2.398525000000     1.007825032070

  Nuclear repulsion =  416.629345676329478

  ==> Basis Set <==

  Basis Set: 6-31G*
    Number of shells: 72
    Number of basis function: 153
    Number of Cartesian functions: 153
    Spherical Harmonics?: false
    Max angular momentum: 2

  ==> DFJKGrad: Density-Fitted SCF Gradients <==

    Gradient:                    1
    J tasked:                  Yes
    K tasked:                  Yes
    wK tasked:                  No
    OpenMP threads:              1
    Integrals threads:           1
    Memory (MB):              2250
    Schwarz Cutoff:          0E+00
    Fitting Condition:       1E-12

   => Auxiliary Basis Set <=

  Basis Set: 
    Number of shells: 297
    Number of basis function: 954
    Number of Cartesian functions: 954
    Spherical Harmonics?: false
    Max angular momentum: 3

  ==> DFT Potential <==

   => B3LYP-D3 Composite Functional <= 

    B3LYP Hybrid-GGA Exchange-Correlation Functional (VWN1-RPA)

    P.J. Stephens et. al., J. Phys. Chem., 98, 11623-11627, 1994

    Points   =           5000
    Deriv    =              1
    GGA      =           TRUE
    Meta     =          FALSE

    X_LRC        =          FALSE
    X_Hybrid     =           TRUE
    X_Alpha      =   2.000000E-01
    X_Omega      =   0.000000E+00
    C_LRC        =          FALSE
    C_Hybrid     =          FALSE
    C_Alpha      =   0.000000E+00
    C_Omega      =   0.000000E+00

   => Exchange Functionals <=

    0.8000    B3_X
    0.2000      HF 

   => Correlation Functionals <=

    0.1900 VWN3RPA_C
    0.8100   LYP_C

   => -D3ZERO: Empirical Dispersion <=

    Grimme's -D3 (zero-damping) Dispersion Correction

    Grimme S.; Antony J.; Ehrlich S.; Krieg H. (2010), J. Chem. Phys., 132: 154104

    S6  =   1.000000E+00
    S8  =   1.703000E+00
    SR6 =   1.261000E+00
    A6  =   1.400000E+01

   => Molecular Quadrature <=

    Radial Scheme    =       TREUTLER
    Pruning Scheme   =           FLAT
    Nuclear Scheme   =       TREUTLER

    BS radius alpha  =              1
    Pruning alpha    =              1
    Radial Points    =             75
    Spherical Points =            302
    Total Points     =         397104
    Total Blocks     =            369
    Max Points       =           5000
    Max Functions    =            151


  -Total Gradient:
     Atom            X                  Y                   Z
    ------   -----------------  -----------------  -----------------
       1        0.001050253442    -0.011156894396     0.010508602568
       2       -0.002427700683    -0.002205273254    -0.007285299115
       3       -0.000136708054    -0.003313577599     0.002003368616
       4        0.000000469069     0.000288107421    -0.000320887293
       5       -0.001286301672     0.001093663172     0.002211417414
       6        0.001990371359     0.004329808858    -0.001970795462
       7       -0.018735816868    -0.031537703432    -0.031505821307
       8        0.000446728228    -0.000166251833     0.000055239250
       9        0.000325008833     0.000037216185    -0.000302827941
      10        0.000274567803    -0.000082520950    -0.000102168883
      11       -0.000136320141    -0.000012591024     0.000024557093
      12        0.002395930393    -0.001508982631     0.000722529194
      13        0.016745429870     0.031455871839     0.034272629551
      14       -0.000372768641     0.010769145927    -0.008628932240
      15        0.002989576002     0.003669928821     0.002533357191
      16       -0.002849073736    -0.002917325518    -0.001061100441
      17        0.000671408030    -0.003742829519     0.010659014117
      18       -0.000945845082     0.005010064226    -0.011811110238


*** tstop() called on computer04 at Tue Dec 12 14:35:16 2017
Module time:
	user time   =      23.44 seconds =       0.39 minutes
	system time =       0.20 seconds =       0.00 minutes
	total time  =         23 seconds =       0.38 minutes
Total time:
	user time   =     111.80 seconds =       1.86 minutes
	system time =       0.61 seconds =       0.01 minutes
	total time  =        112 seconds =       1.87 minutes

			-----------------------------------------
			 OPTKING 2.0: for geometry optimizations 
			  - R.A. King,  Bethel University        
			-----------------------------------------
	At level 1: Red. Int., RFO, no backsteps, dynamic trust

	Internal coordinates to be generated automatically.
	Detected frag 1 with atoms:  1 2 3 4 5 6 7 8 9 10 11 12 13 14 15 16 17 18
	---Fragment 1 Bond Connectivity---
	 1 : 2 6 7
	 2 : 1 3 8
	 3 : 2 4 9
	 4 : 3 5 10
	 5 : 4 6 11
	 6 : 1 5 12
	 7 : 1 13 14
	 8 : 2
	 9 : 3
	 10 : 4
	 11 : 5
	 12 : 6
	 13 : 7 17 18
	 14 : 7 15 16
	 15 : 14
	 16 : 14
	 17 : 13
	 18 : 13

	Assuming in current code that numbering for constraints corresponds to unified fragment.
	Frozen dihedral atom list: 
	     1     7    13    17
	---Fragment 1 Geometry and Gradient---
	 C           0.0000000000        0.0000000000       -0.3361142489
	 C           0.0693113751        2.3042829136        0.9905282984
	 C           0.0600252609        2.2924626766        3.6196645829
	 C           0.0000000000        0.0000000000        4.9323874075
	 C          -0.0600252609       -2.2924626766        3.6196645829
	 C          -0.0693094854       -2.3042829136        0.9905282984
	 C           0.0000000000        0.0000000000       -3.1080968214
	 H           0.0343363238        4.0906996085       -0.0205091977
	 H           0.0801281675        4.0683819429        4.6447314059
	 H           0.0000000000        0.0000000000        6.9839666940
	 H          -0.0801281675       -4.0683819429        4.6447314059
	 H          -0.0343363238       -4.0906996085       -0.0205091977
	 N          -1.3465999450       -1.7119973901       -4.3623571887
	 N           1.3465999450        1.7119973901       -4.3623590784
	 H           1.2726020491        1.9019507712       -6.2663261875
	 H           2.6025119329        2.8080763417       -3.4266725221
	 H          -0.4852211997       -3.2569921229       -5.0870879477
	 H          -3.2514363281       -1.6156799388       -4.5325553729
	             0.0010502534       -0.0111568944        0.0105086026
	            -0.0024277007       -0.0022052733       -0.0072852991
	            -0.0001367081       -0.0033135776        0.0020033686
	             0.0000004691        0.0002881074       -0.0003208873
	            -0.0012863017        0.0010936632        0.0022114174
	             0.0019903714        0.0043298089       -0.0019707955
	            -0.0187358169       -0.0315377034       -0.0315058213
	             0.0004467282       -0.0001662518        0.0000552393
	             0.0003250088        0.0000372162       -0.0003028279
	             0.0002745678       -0.0000825210       -0.0001021689
	            -0.0001363201       -0.0000125910        0.0000245571
	             0.0023959304       -0.0015089826        0.0007225292
	             0.0167454299        0.0314558718        0.0342726296
	            -0.0003727686        0.0107691459       -0.0086289322
	             0.0029895760        0.0036699288        0.0025333572
	            -0.0028490737       -0.0029173255       -0.0010611004
	             0.0006714080       -0.0037428295        0.0106590141
	            -0.0009458451        0.0050100642       -0.0118111102

	Previous optimization step data not found.  Starting new optimization.

	---Fragment 1 Intrafragment Coordinates---
	 - Coordinate -           - BOHR/RAD -       - ANG/DEG -
	 R(1,2)           =         2.659794	       1.407502
	 R(1,6)           =         2.659794	       1.407502
	 R(1,7)           =         2.771983	       1.466870
	 R(2,3)           =         2.629179	       1.391302
	 R(2,8)           =         2.052975	       1.086387
	 R(3,4)           =         2.642391	       1.398293
	 R(3,9)           =         2.050623	       1.085143
	 R(4,5)           =         2.642391	       1.398293
	 R(4,10)          =         2.051579	       1.085649
	 R(5,6)           =         2.629179	       1.391302
	 R(5,11)          =         2.050623	       1.085143
	 R(6,12)          =         2.052975	       1.086387
	 R(7,13)          =         2.513451	       1.330061
	 R(7,14)          =         2.513452	       1.330061
	 R(13,17)         =         1.911601	       1.011575
	 R(13,18)         =         1.914849	       1.013294
	 R(14,15)         =         1.914850	       1.013295
	 R(14,16)         =         1.911600	       1.011575
	 B(1,2,3)         =         2.088380	     119.655334
	 B(1,2,8)         =         2.103396	     120.515735
	 B(1,6,5)         =         2.088380	     119.655336
	 B(1,6,12)        =         2.103396	     120.515739
	 B(1,7,13)        =         2.093263	     119.935135
	 B(1,7,14)        =         2.093264	     119.935172
	 B(2,1,6)         =         2.097220	     120.161836
	 B(2,1,7)         =         2.092983	     119.919082
	 B(2,3,4)         =         2.095280	     120.050699
	 B(2,3,9)         =         2.089718	     119.732039
	 B(3,2,8)         =         2.090149	     119.756716
	 B(3,4,5)         =         2.101792	     120.423818
	 B(3,4,10)        =         2.090697	     119.788091
	 B(4,3,9)         =         2.098135	     120.214304
	 B(4,5,6)         =         2.095280	     120.050698
	 B(4,5,11)        =         2.098135	     120.214304
	 B(5,4,10)        =         2.090697	     119.788091
	 B(5,6,12)        =         2.090149	     119.756718
	 B(6,1,7)         =         2.092983	     119.919082
	 B(6,5,11)        =         2.089718	     119.732040
	 B(7,13,17)       =         2.092411	     119.886304
	 B(7,13,18)       =         2.144861	     122.891458
	 B(7,14,15)       =         2.144860	     122.891403
	 B(7,14,16)       =         2.092412	     119.886356
	 B(13,7,14)       =         2.096659	     120.129694
	 B(15,14,16)      =         2.043400	     117.078183
	 B(17,13,18)      =         2.043400	     117.078185
	 D(1,2,3,4)       =         0.007800	       0.446917
	 D(1,2,3,9)       =        -3.122897	    -178.928796
	 D(1,6,5,4)       =         0.007799	       0.446823
	 D(1,6,5,11)      =        -3.122897	    -178.928843
	*D(1,7,13,17)     =        -1.745330	    -100.000054
	 D(1,7,13,18)     =         1.317847	      75.507085
	 D(1,7,14,15)     =        -3.032165	    -173.730265
	 D(1,7,14,16)     =         0.187844	      10.762677
	 D(2,1,6,5)       =        -0.003905	      -0.223756
	 D(2,1,6,12)      =        -3.091438	    -177.126344
	 D(2,1,7,13)      =        -2.505167	    -143.535494
	 D(2,1,7,14)      =         0.636426	      36.464506
	 D(2,3,4,5)       =        -0.003943	      -0.225922
	 D(2,3,4,10)      =         3.137650	     179.774078
	 D(3,2,1,6)       =        -0.003908	      -0.223897
	 D(3,2,1,7)       =         3.137686	     179.776150
	 D(3,4,5,6)       =        -0.003942	      -0.225875
	 D(3,4,5,11)      =         3.126701	     179.146753
	 D(4,3,2,8)       =         3.095745	     177.373103
	 D(4,5,6,12)      =         3.095746	     177.373164
	 D(5,4,3,9)       =         3.126701	     179.146753
	 D(5,6,1,7)       =         3.137687	     179.776197
	 D(6,1,2,8)       =        -3.091438	    -177.126330
	 D(6,1,7,13)      =         0.636427	      36.464553
	 D(6,1,7,14)      =        -2.505166	    -143.535447
	 D(6,5,4,10)      =         3.137650	     179.774125
	 D(7,1,2,8)       =         0.050156	       2.873717
	 D(7,1,6,12)      =         0.050154	       2.873609
	 D(8,2,3,9)       =        -0.034952	      -2.002610
	 D(9,3,4,10)      =        -0.014892	      -0.853247
	 D(10,4,5,11)     =        -0.014892	      -0.853247
	 D(11,5,6,12)     =        -0.034950	      -2.002502
	 D(13,7,14,15)    =         0.109428	       6.269735
	 D(13,7,14,16)    =        -2.953749	    -169.237323
	 D(14,7,13,17)    =         1.396262	      79.999946
	 D(14,7,13,18)    =        -1.823745	    -104.492915

	Current energy   :      -381.4315895204

	Generating empirical Hessian (Schlegel '84) for each fragment.
	Taking RFO optimization step.
	Going to follow RFO solution 1.
	Using RFO vector 1.

	Determining step-restricting scale parameter for RS-RFO.
	Maximum step size allowed    0.50000

	 Iter      |step|        alpha        rfo_root  
	------------------------------------------------
	    0     0.53544       1.00000           1
	    1     0.50322       1.18842           1
	    2     0.50003       1.20912           1
	    3     0.50000       1.20932           1
	------------------------------------------------
	Norm of target step-size    0.50000
	Projected energy change by RFO approximation:         0.0001399185

	Back-transformation to cartesian coordinates...
	Could not converge backtransformation.
	Using first guess instead.

	Back-transformation to cartesian coordinates to adjust frozen coordinates...
	Successfully converged to displaced geometry.

	--- Internal Coordinate Step in ANG or DEG, aJ/ANG or AJ/DEG ---
	 ---------------------------------------------------------------------------
	   Coordinate                Previous        Force       Change         New 
	   ----------                --------       ------       ------       ------
	    1 R(1,2)          =      1.407502     0.047455     0.008301     1.415803
	    2 R(1,6)          =      1.407502     0.013430     0.003383     1.410886
	    3 R(1,7)          =      1.466870    -0.045664    -0.007689     1.459181
	    4 R(2,3)          =      1.391302    -0.015795    -0.001834     1.389468
	    5 R(2,8)          =      1.086387     0.001482     0.000900     1.087287
	    6 R(3,4)          =      1.398293     0.014276     0.002737     1.401030
	    7 R(3,9)          =      1.085143     0.000959     0.001176     1.086319
	    8 R(4,5)          =      1.398293     0.016224     0.003815     1.402108
	    9 R(4,10)         =      1.085649     0.000843     0.000313     1.085962
	   10 R(5,6)          =      1.391302    -0.013135    -0.001378     1.389924
	   11 R(5,11)         =      1.085143    -0.000205     0.000974     1.086117
	   12 R(6,12)         =      1.086387    -0.008227     0.002024     1.088411
	   13 R(7,13)         =      1.330061     0.392493     0.048764     1.378825
	   14 R(7,14)         =      1.330061    -0.093048    -0.009447     1.320614
	   15 R(13,17)        =      1.011575     0.005873     0.006022     1.017598
	   16 R(13,18)        =      1.013294    -0.018475     0.025700     1.038995
	   17 R(14,15)        =      1.013295     0.018706     0.004396     1.017691
	   18 R(14,16)        =      1.011575     0.033483     0.006808     1.018383
	   19 B(1,2,3)        =    119.655334     0.000046     0.170649   119.825983
	   20 B(1,2,8)        =    120.515735    -0.000022    -0.045493   120.470242
	   21 B(1,6,5)        =    119.655336    -0.000020    -0.157674   119.497662
	   22 B(1,6,12)       =    120.515739    -0.000093    -0.298925   120.216814
	   23 B(1,7,13)       =    119.935135     0.000972     2.488740   122.423875
	   24 B(1,7,14)       =    119.935172    -0.000223    -0.635297   119.299875
	   25 B(2,1,6)        =    120.161836    -0.000051    -0.048140   120.113696
	   26 B(2,1,7)        =    119.919082     0.000454     1.245460   121.164542
	   27 B(2,3,4)        =    120.050699    -0.000091    -0.324531   119.726168
	   28 B(2,3,9)        =    119.732039     0.000068     0.236767   119.968806
	   29 B(3,2,8)        =    119.756716    -0.000025    -0.136384   119.620332
	   30 B(3,4,5)        =    120.423818     0.000086     0.273346   120.697163
	   31 B(3,4,10)       =    119.788091    -0.000049    -0.173731   119.614360
	   32 B(4,3,9)        =    120.214304     0.000023     0.087198   120.301502
	   33 B(4,5,6)        =    120.050698     0.000029     0.067828   120.118526
	   34 B(4,5,11)       =    120.214304    -0.000013     0.049582   120.263886
	   35 B(5,4,10)       =    119.788091    -0.000037    -0.102177   119.685914
	   36 B(5,6,12)       =    119.756718     0.000115     0.491764   120.248481
	   37 B(6,1,7)        =    119.919082    -0.000403    -1.197925   118.721157
	   38 B(6,5,11)       =    119.732040    -0.000016    -0.114967   119.617072
	   39 B(7,13,17)      =    119.886304     0.000399     1.310825   121.197130
	   40 B(7,13,18)      =    122.891458    -0.000374    -2.595966   120.295492
	   41 B(7,14,15)      =    122.891403    -0.000525    -2.344344   120.547059
	   42 B(7,14,16)      =    119.886356     0.000342     1.449278   121.335635
	   43 B(13,7,14)      =    120.129694    -0.000749    -2.058075   118.071618
	   44 B(15,14,16)     =    117.078183     0.000181     0.862426   117.940609
	   45 B(17,13,18)     =    117.078185    -0.000066    -0.438175   116.640010
	   46 D(1,2,3,4)      =      0.446917     0.000003     0.251918     0.698835
	   47 D(1,2,3,9)      =   -178.928796     0.000004     0.308356  -178.620439
	   48 D(1,6,5,4)      =      0.446823     0.000011     1.048089     1.494912
	   49 D(1,6,5,11)     =   -178.928843     0.000002     0.163063  -178.765780
	   50 *D(1,7,13,17)   =   -100.000054     0.000000     0.000000  -100.000054
	   51 D(1,7,13,18)    =     75.507085    -0.000146   -11.585041    63.922044
	   52 D(1,7,14,15)    =   -173.730265    -0.000036    -3.155435  -176.885699
	   53 D(1,7,14,16)    =     10.762677    -0.000029    -2.717581     8.045096
	   54 D(2,1,6,5)      =     -0.223756    -0.000013    -1.275697    -1.499453
	   55 D(2,1,6,12)     =   -177.126344    -0.000024    -2.165147  -179.291491
	   56 D(2,1,7,13)     =   -143.535494    -0.000083    -9.454773  -152.990267
	   57 D(2,1,7,14)     =     36.464506    -0.000026    -4.153755    32.310751
	   58 D(2,3,4,5)      =     -0.225922    -0.000005    -0.483734    -0.709656
	   59 D(2,3,4,10)     =    179.774078     0.000001     0.100338   179.874416
	   60 D(3,2,1,6)      =     -0.223897     0.000006     0.623571     0.399673
	   61 D(3,2,1,7)      =    179.776150     0.000003     0.336934   180.113083
	   62 D(3,4,5,6)      =     -0.225875    -0.000002    -0.175666    -0.401540
	   63 D(3,4,5,11)     =    179.146753     0.000007     0.714099   179.860852
	   64 D(4,3,2,8)      =    177.373103     0.000000     0.020289   177.393392
	   65 D(4,5,6,12)     =    177.373164     0.000020     1.913075   179.286238
	   66 D(5,4,3,9)      =    179.146753    -0.000006    -0.539433   178.607320
	   67 D(5,6,1,7)      =    179.776197    -0.000010    -0.996016   178.780181
	   68 D(6,1,2,8)      =   -177.126330     0.000009     0.859962  -176.266368
	   69 D(6,1,7,13)     =     36.464553    -0.000087    -9.737509    26.727044
	   70 D(6,1,7,14)     =   -143.535447    -0.000030    -4.436491  -147.971938
	   71 D(6,5,4,10)     =    179.774125    -0.000008    -0.760154   179.013972
	   72 D(7,1,2,8)      =      2.873717     0.000005     0.573325     3.447042
	   73 D(7,1,6,12)     =      2.873609    -0.000020    -1.885466     0.988143
	   74 D(8,2,3,9)      =     -2.002610     0.000001     0.076727    -1.925883
	   75 D(9,3,4,10)     =     -0.853247     0.000000     0.044640    -0.808608
	   76 D(10,4,5,11)    =     -0.853247     0.000001     0.129612    -0.723636
	   77 D(11,5,6,12)    =     -2.002502     0.000011     1.028049    -0.974453
	   78 D(13,7,14,15)   =      6.269735     0.000021     1.915138     8.184873
	   79 D(13,7,14,16)   =   -169.237323     0.000028     2.352991  -166.884332
	   80 D(14,7,13,17)   =     79.999946    -0.000057    -5.239026    74.760920
	   81 D(14,7,13,18)   =   -104.492915    -0.000203   -16.824067  -121.316982
	 ---------------------------------------------------------------------------
	Successfully symmetrized geometry.

  ==> Convergence Check <==

  Measures of convergence in internal coordinates in au.
  Criteria marked as inactive (o), active & met (*), and active & unmet ( ).
  --------------------------------------------------------------------------------------------- ~
   Step     Total Energy     Delta E     MAX Force     RMS Force      MAX Disp      RMS Disp    ~
  --------------------------------------------------------------------------------------------- ~
    Convergence Criteria    1.00e-06 *    3.00e-04 *             o    1.20e-03 *             o  ~
  --------------------------------------------------------------------------------------------- ~
      1    -381.43158952   -3.81e+02      4.76e-02      6.34e-03 o    2.94e-01      5.43e-02 o  ~
  ---------------------------------------------------------------------------------------------

	Writing optimization data to binary file.
	Structure for next step:
	Cartesian Geometry (in Angstrom)
	    C    -0.0166856801   0.0365970613  -0.1778660691
	    C     0.0827985481   1.2489661973   0.5465387325
	    C     0.0917976911   1.2251811498   1.9357737864
	    C     0.0170718952  -0.0006212900   2.6100955840
	    C    -0.0817113423  -1.2044092274   1.8980267305
	    C    -0.1149664319  -1.1921280426   0.5085550861
	    C    -0.0263112281   0.0273972195  -1.6369860010
	    H     0.0979089434   2.2030460405   0.0252935193
	    H     0.1454311947   2.1554995385   2.4940923344
	    H     0.0263081213  -0.0172320819   3.6958914179
	    H    -0.1369541132  -2.1508833280   2.4279178134
	    H    -0.1799285662  -2.1260491511  -0.0466114999
	    N    -0.6391374246  -0.9696803486  -2.3659836380
	    N     0.6591559369   0.9455508783  -2.2936067985
	    H     0.6279665479   0.9859067500  -3.3100185728
	    H     1.2889218606   1.5831058394  -1.8098480887
	    H    -0.1009626594  -1.7303442633  -2.7749622080
	    H    -1.6674342933  -1.1059709419  -2.3064841286
			--------------------------
			 OPTKING Finished Execution 
			--------------------------

    Structure for next step:
    Molecular point group: c1
    Full point group: C1

    Geometry (in Angstrom), charge = 1, multiplicity = 1:

    C           -0.016685680111     0.036597061257    -0.177866069095
    C            0.082798548122     1.248966197332     0.546538732484
    C            0.091797691105     1.225181149817     1.935773786407
    C            0.017071895177    -0.000621289974     2.610095584046
    C           -0.081711342304    -1.204409227360     1.898026730546
    C           -0.114966431884    -1.192128042630     0.508555086115
    C           -0.026311228087     0.027397219533    -1.636986000960
    H            0.097908943405     2.203046040540     0.025293519274
    H            0.145431194664     2.155499538497     2.494092334355
    H            0.026308121292    -0.017232081867     3.695891417864
    H           -0.136954113208    -2.150883328008     2.427917813370
    H           -0.179928566193    -2.126049151053    -0.046611499851
    N           -0.639137424638    -0.969680348563    -2.365983637989
    N            0.659155936927     0.945550878280    -2.293606798476
    H            0.627966547895     0.985906750013    -3.310018572829
    H            1.288921860558     1.583105839389    -1.809848088743
    H           -0.100962659379    -1.730344263339    -2.774962207958
    H           -1.667434293341    -1.105970941863    -2.306484128559

gradient() will perform analytic gradient computation.

*** tstart() called on computer04
*** at Tue Dec 12 14:35:17 2017


         ---------------------------------------------------------
                                   SCF
            by Justin Turney, Rob Parrish, and Andy Simmonett
                              RKS Reference
                        1 Threads,   3145 MiB Core
         ---------------------------------------------------------

  ==> Geometry <==

    Molecular point group: c1
    Full point group: C1

    Geometry (in Angstrom), charge = 1, multiplicity = 1:

       Center              X                  Y                   Z               Mass       
    ------------   -----------------  -----------------  -----------------  -----------------
           C         -0.016685680111     0.036597061257    -0.177866069095    12.000000000000
           C          0.082798548122     1.248966197332     0.546538732484    12.000000000000
           C          0.091797691105     1.225181149817     1.935773786407    12.000000000000
           C          0.017071895177    -0.000621289974     2.610095584046    12.000000000000
           C         -0.081711342304    -1.204409227360     1.898026730546    12.000000000000
           C         -0.114966431884    -1.192128042630     0.508555086115    12.000000000000
           C         -0.026311228087     0.027397219533    -1.636986000960    12.000000000000
           H          0.097908943405     2.203046040540     0.025293519274     1.007825032070
           H          0.145431194664     2.155499538497     2.494092334355     1.007825032070
           H          0.026308121292    -0.017232081867     3.695891417864     1.007825032070
           H         -0.136954113208    -2.150883328008     2.427917813370     1.007825032070
           H         -0.179928566193    -2.126049151053    -0.046611499851     1.007825032070
           N         -0.639137424638    -0.969680348563    -2.365983637989    14.003074004780
           N          0.659155936927     0.945550878280    -2.293606798476    14.003074004780
           H          0.627966547895     0.985906750013    -3.310018572829     1.007825032070
           H          1.288921860558     1.583105839389    -1.809848088743     1.007825032070
           H         -0.100962659379    -1.730344263339    -2.774962207958     1.007825032070
           H         -1.667434293341    -1.105970941863    -2.306484128559     1.007825032070

  Running in c1 symmetry.

  Rotational constants: A =      0.11991  B =      0.03969  C =      0.03091 [cm^-1]
  Rotational constants: A =   3594.83454  B =   1190.02155  C =    926.62669 [MHz]
  Nuclear repulsion =  415.262080056487946

  Charge       = 1
  Multiplicity = 1
  Electrons    = 64
  Nalpha       = 32
  Nbeta        = 32

  ==> Algorithm <==

  SCF Algorithm Type is DF.
  DIIS enabled.
  MOM disabled.
  Fractional occupation disabled.
  Guess Type is READ.
  Energy threshold   = 1.00e-08
  Density threshold  = 1.00e-08
  Integral threshold = 0.00e+00

  ==> Primary Basis <==

  Basis Set: 6-31G*
    Number of shells: 72
    Number of basis function: 153
    Number of Cartesian functions: 153
    Spherical Harmonics?: false
    Max angular momentum: 2

  ==> DFT Potential <==

   => B3LYP-D3 Composite Functional <= 

    B3LYP Hybrid-GGA Exchange-Correlation Functional (VWN1-RPA)

    P.J. Stephens et. al., J. Phys. Chem., 98, 11623-11627, 1994

    Points   =           5000
    Deriv    =              1
    GGA      =           TRUE
    Meta     =          FALSE

    X_LRC        =          FALSE
    X_Hybrid     =           TRUE
    X_Alpha      =   2.000000E-01
    X_Omega      =   0.000000E+00
    C_LRC        =          FALSE
    C_Hybrid     =          FALSE
    C_Alpha      =   0.000000E+00
    C_Omega      =   0.000000E+00

   => Exchange Functionals <=

    0.8000    B3_X
    0.2000      HF 

   => Correlation Functionals <=

    0.1900 VWN3RPA_C
    0.8100   LYP_C

   => -D3ZERO: Empirical Dispersion <=

    Grimme's -D3 (zero-damping) Dispersion Correction

    Grimme S.; Antony J.; Ehrlich S.; Krieg H. (2010), J. Chem. Phys., 132: 154104

    S6  =   1.000000E+00
    S8  =   1.703000E+00
    SR6 =   1.261000E+00
    A6  =   1.400000E+01

   => Molecular Quadrature <=

    Radial Scheme    =       TREUTLER
    Pruning Scheme   =           FLAT
    Nuclear Scheme   =       TREUTLER

    BS radius alpha  =              1
    Pruning alpha    =              1
    Radial Points    =             75
    Spherical Points =            302
    Total Points     =         397037
    Total Blocks     =            363
    Max Points       =           4933
    Max Functions    =            152

  ==> Pre-Iterations <==

   -------------------------------------------------------
    Irrep   Nso     Nmo     Nalpha   Nbeta   Ndocc  Nsocc
   -------------------------------------------------------
     A        153     153       0       0       0       0
   -------------------------------------------------------
    Total     153     153      32      32      32       0
   -------------------------------------------------------

  ==> Integral Setup <==

  ==> DFJK: Density-Fitted J/K Matrices <==

    J tasked:                  Yes
    K tasked:                  Yes
    wK tasked:                  No
    OpenMP threads:              1
    Integrals threads:           1
    Memory (MB):              2250
    Algorithm:                Core
    Integral Cache:           NONE
    Schwarz Cutoff:          1E-12
    Fitting Condition:       1E-12

   => Auxiliary Basis Set <=

  Basis Set: 
    Number of shells: 297
    Number of basis function: 954
    Number of Cartesian functions: 954
    Spherical Harmonics?: false
    Max angular momentum: 3

  Minimum eigenvalue in the overlap matrix is 4.9447371112E-04.
  Using Symmetric Orthogonalization.
  SCF Guess: Reading in previously saved MOs, projecting if necessary.

  Using orbitals from previous SCF, no projection.
  Recomputing DOCC and SOCC from number of alpha and beta electrons from previous calculation.
              A 
    DOCC [    32 ]

  ==> Iterations <==

                           Total Energy        Delta E     RMS |[F,P]|

   @DF-RKS iter   0:  -381.37642417075557   -3.81376e+02   1.52638e-03 
   @DF-RKS iter   1:  -381.44045157111140   -6.40274e-02   2.44088e-04 
   @DF-RKS iter   2:  -381.44014000490432    3.11566e-04   3.21283e-04 DIIS
   @DF-RKS iter   3:  -381.44130051528765   -1.16051e-03   6.61805e-05 DIIS
   @DF-RKS iter   4:  -381.44134034835980   -3.98331e-05   3.28923e-05 DIIS
   @DF-RKS iter   5:  -381.44135294125959   -1.25929e-05   9.61012e-06 DIIS
   @DF-RKS iter   6:  -381.44135403410502   -1.09285e-06   2.92328e-06 DIIS
   @DF-RKS iter   7:  -381.44135413494536   -1.00840e-07   1.00637e-06 DIIS
   @DF-RKS iter   8:  -381.44135414572150   -1.07761e-08   4.19848e-07 DIIS
   @DF-RKS iter   9:  -381.44135414817123   -2.44972e-09   1.09198e-07 DIIS
   @DF-RKS iter  10:  -381.44135414830208   -1.30854e-10   4.87951e-08 DIIS
   @DF-RKS iter  11:  -381.44135414833221   -3.01270e-11   1.39731e-08 DIIS
   @DF-RKS iter  12:  -381.44135414833357   -1.36424e-12   5.49839e-09 DIIS

  ==> Post-Iterations <==

    Orbital Energies (a.u.)
    -----------------------

    Doubly Occupied:                                                      

       1A    -14.581878     2A    -14.527851     3A    -10.497265  
       4A    -10.373927     5A    -10.362543     6A    -10.359986  
       7A    -10.352071     8A    -10.346022     9A    -10.344327  
      10A     -1.172278    11A     -1.067569    12A     -1.016152  
      13A     -0.926351    14A     -0.906200    15A     -0.839678  
      16A     -0.777918    17A     -0.768549    18A     -0.736928  
      19A     -0.714056    20A     -0.693692    21A     -0.669448  
      22A     -0.630376    23A     -0.607062    24A     -0.585534  
      25A     -0.580798    26A     -0.558162    27A     -0.518503  
      28A     -0.510564    29A     -0.501474    30A     -0.444365  
      31A     -0.417399    32A     -0.409993  

    Virtual:                                                              

      33A     -0.249366    34A     -0.158640    35A     -0.138802  
      36A     -0.099195    37A     -0.075914    38A     -0.050582  
      39A     -0.038709    40A     -0.007746    41A      0.004085  
      42A      0.006949    43A      0.020937    44A      0.053491  
      45A      0.057744    46A      0.086693    47A      0.122296  
      48A      0.128597    49A      0.153467    50A      0.163538  
      51A      0.212536    52A      0.232876    53A      0.296889  
      54A      0.350895    55A      0.367822    56A      0.377766  
      57A      0.392777    58A      0.399228    59A      0.412679  
      60A      0.419216    61A      0.437203    62A      0.446210  
      63A      0.453364    64A      0.467214    65A      0.470207  
      66A      0.480490    67A      0.487446    68A      0.511538  
      69A      0.529248    70A      0.536959    71A      0.548125  
      72A      0.577376    73A      0.617645    74A      0.648214  
      75A      0.673952    76A      0.687639    77A      0.695044  
      78A      0.700563    79A      0.716743    80A      0.722357  
      81A      0.726478    82A      0.750812    83A      0.770898  
      84A      0.784069    85A      0.809305    86A      0.824591  
      87A      0.854392    88A      0.882445    89A      0.941957  
      90A      0.974060    91A      0.986407    92A      1.018481  
      93A      1.059041    94A      1.078468    95A      1.131593  
      96A      1.149548    97A      1.236998    98A      1.271400  
      99A      1.274242   100A      1.299241   101A      1.323073  
     102A      1.336634   103A      1.353130   104A      1.362682  
     105A      1.432923   106A      1.453509   107A      1.543920  
     108A      1.581888   109A      1.626126   110A      1.650450  
     111A      1.697028   112A      1.727411   113A      1.745099  
     114A      1.781972   115A      1.792438   116A      1.813070  
     117A      1.890297   118A      1.940733   119A      1.960790  
     120A      1.968587   121A      1.993610   122A      2.013982  
     123A      2.019899   124A      2.024841   125A      2.106858  
     126A      2.129673   127A      2.151494   128A      2.180406  
     129A      2.228886   130A      2.304948   131A      2.352375  
     132A      2.387948   133A      2.441848   134A      2.454115  
     135A      2.474926   136A      2.497438   137A      2.536915  
     138A      2.581031   139A      2.591332   140A      2.621508  
     141A      2.731335   142A      2.811769   143A      2.985430  
     144A      3.246660   145A      3.616050   146A      3.679503  
     147A      3.904498   148A      3.939433   149A      3.959494  
     150A      4.038179   151A      4.166477   152A      4.250333  
     153A      4.541233  

    Final Occupation by Irrep:
              A 
    DOCC [    32 ]

  Energy converged.

  @DF-RKS Final Energy:  -381.44135414833357

   => Energetics <=

    Nuclear Repulsion Energy =            415.2620800564879460
    One-Electron Energy =               -1325.8835134489677330
    Two-Electron Energy =                 573.5652778765096400
    DFT Exchange-Correlation Energy =     -44.3733420523634763
    Empirical Dispersion Energy =          -0.0118565800000000
    PCM Polarization Energy =               0.0000000000000000
    EFP Energy =                            0.0000000000000000
    Total Energy =                       -381.4413541483335734


  Saving occupied orbitals to File 180.

*** tstop() called on computer04 at Tue Dec 12 14:36:32 2017
Module time:
	user time   =      74.70 seconds =       1.24 minutes
	system time =       0.34 seconds =       0.01 minutes
	total time  =         75 seconds =       1.25 minutes
Total time:
	user time   =     186.74 seconds =       3.11 minutes
	system time =       0.96 seconds =       0.02 minutes
	total time  =        188 seconds =       3.13 minutes


Properties will be evaluated at   0.000000,   0.000000,   0.000000 Bohr

Properties computed using the SCF density matrix

  Nuclear Dipole Moment: (a.u.)
     X:    -0.0882      Y:     0.8959      Z:    -0.2212

  Electronic Dipole Moment: (a.u.)
     X:     0.3348      Y:    -0.7808      Z:    -1.5852

  Dipole Moment: (a.u.)
     X:     0.2467      Y:     0.1150      Z:    -1.8064     Total:     1.8268

  Dipole Moment: (Debye)
     X:     0.6270      Y:     0.2924      Z:    -4.5914     Total:     4.6432


*** tstart() called on computer04
*** at Tue Dec 12 14:36:32 2017


         ------------------------------------------------------------
                                   SCF GRAD                          
                          Rob Parrish, Justin Turney,                
                       Andy Simmonett, and Alex Sokolov              
         ------------------------------------------------------------

  ==> Geometry <==

    Molecular point group: c1
    Full point group: C1

    Geometry (in Angstrom), charge = 1, multiplicity = 1:

       Center              X                  Y                   Z               Mass       
    ------------   -----------------  -----------------  -----------------  -----------------
           C         -0.016685680111     0.036597061257    -0.177866069095    12.000000000000
           C          0.082798548122     1.248966197332     0.546538732484    12.000000000000
           C          0.091797691105     1.225181149817     1.935773786407    12.000000000000
           C          0.017071895177    -0.000621289974     2.610095584046    12.000000000000
           C         -0.081711342304    -1.204409227360     1.898026730546    12.000000000000
           C         -0.114966431884    -1.192128042630     0.508555086115    12.000000000000
           C         -0.026311228087     0.027397219533    -1.636986000960    12.000000000000
           H          0.097908943405     2.203046040540     0.025293519274     1.007825032070
           H          0.145431194664     2.155499538497     2.494092334355     1.007825032070
           H          0.026308121292    -0.017232081867     3.695891417864     1.007825032070
           H         -0.136954113208    -2.150883328008     2.427917813370     1.007825032070
           H         -0.179928566193    -2.126049151053    -0.046611499851     1.007825032070
           N         -0.639137424638    -0.969680348563    -2.365983637989    14.003074004780
           N          0.659155936927     0.945550878280    -2.293606798476    14.003074004780
           H          0.627966547895     0.985906750013    -3.310018572829     1.007825032070
           H          1.288921860558     1.583105839389    -1.809848088743     1.007825032070
           H         -0.100962659379    -1.730344263339    -2.774962207958     1.007825032070
           H         -1.667434293341    -1.105970941863    -2.306484128559     1.007825032070

  Nuclear repulsion =  415.262080056487946

  ==> Basis Set <==

  Basis Set: 6-31G*
    Number of shells: 72
    Number of basis function: 153
    Number of Cartesian functions: 153
    Spherical Harmonics?: false
    Max angular momentum: 2

  ==> DFJKGrad: Density-Fitted SCF Gradients <==

    Gradient:                    1
    J tasked:                  Yes
    K tasked:                  Yes
    wK tasked:                  No
    OpenMP threads:              1
    Integrals threads:           1
    Memory (MB):              2250
    Schwarz Cutoff:          0E+00
    Fitting Condition:       1E-12

   => Auxiliary Basis Set <=

  Basis Set: 
    Number of shells: 297
    Number of basis function: 954
    Number of Cartesian functions: 954
    Spherical Harmonics?: false
    Max angular momentum: 3

  ==> DFT Potential <==

   => B3LYP-D3 Composite Functional <= 

    B3LYP Hybrid-GGA Exchange-Correlation Functional (VWN1-RPA)

    P.J. Stephens et. al., J. Phys. Chem., 98, 11623-11627, 1994

    Points   =           5000
    Deriv    =              1
    GGA      =           TRUE
    Meta     =          FALSE

    X_LRC        =          FALSE
    X_Hybrid     =           TRUE
    X_Alpha      =   2.000000E-01
    X_Omega      =   0.000000E+00
    C_LRC        =          FALSE
    C_Hybrid     =          FALSE
    C_Alpha      =   0.000000E+00
    C_Omega      =   0.000000E+00

   => Exchange Functionals <=

    0.8000    B3_X
    0.2000      HF 

   => Correlation Functionals <=

    0.1900 VWN3RPA_C
    0.8100   LYP_C

   => -D3ZERO: Empirical Dispersion <=

    Grimme's -D3 (zero-damping) Dispersion Correction

    Grimme S.; Antony J.; Ehrlich S.; Krieg H. (2010), J. Chem. Phys., 132: 154104

    S6  =   1.000000E+00
    S8  =   1.703000E+00
    SR6 =   1.261000E+00
    A6  =   1.400000E+01

   => Molecular Quadrature <=

    Radial Scheme    =       TREUTLER
    Pruning Scheme   =           FLAT
    Nuclear Scheme   =       TREUTLER

    BS radius alpha  =              1
    Pruning alpha    =              1
    Radial Points    =             75
    Spherical Points =            302
    Total Points     =         397037
    Total Blocks     =            363
    Max Points       =           4933
    Max Functions    =            152


  -Total Gradient:
     Atom            X                  Y                   Z
    ------   -----------------  -----------------  -----------------
       1        0.010501852834    -0.005524193645     0.004652065127
       2       -0.000293355385     0.001386688090    -0.001231264289
       3       -0.001036908431    -0.000426155761     0.001704918132
       4        0.000381452151     0.002066184537     0.000827316646
       5       -0.000240096631    -0.000644797403    -0.001085535730
       6        0.001058921036     0.001184055762    -0.000717018928
       7       -0.006048888394     0.007076360458    -0.009274771284
       8        0.000653719274     0.000255165450    -0.000239138544
       9        0.000028006731     0.000839195485     0.000314646716
      10        0.000022017896     0.000120060249     0.000086197636
      11       -0.000210709412    -0.000855293268    -0.000127695021
      12        0.000635666849    -0.002766034102    -0.000755578370
      13        0.019098758151    -0.001687222184     0.004843546136
      14       -0.004528350751     0.002716529998     0.004411194172
      15        0.000902884406     0.000443907672    -0.001693499639
      16        0.001434017436     0.001978673879     0.001935202591
      17        0.001587791215    -0.009192587191     0.005815572103
      18       -0.023950875254     0.003012865987    -0.009477396746


*** tstop() called on computer04 at Tue Dec 12 14:36:54 2017
Module time:
	user time   =      21.22 seconds =       0.35 minutes
	system time =       0.19 seconds =       0.00 minutes
	total time  =         22 seconds =       0.37 minutes
Total time:
	user time   =     207.97 seconds =       3.47 minutes
	system time =       1.15 seconds =       0.02 minutes
	total time  =        210 seconds =       3.50 minutes

			-----------------------------------------
			 OPTKING 2.0: for geometry optimizations 
			  - R.A. King,  Bethel University        
			-----------------------------------------
	At level 1: Red. Int., RFO, no backsteps, dynamic trust

	Previous internal coordinate definitions found.
	---Fragment 1 Geometry and Gradient---
	 C          -0.0315313658        0.0691584230       -0.3361181589
	 C           0.1564665802        2.3602040622        1.0328085254
	 C           0.1734724958        2.3152568363        3.6580823115
	 C           0.0322612065       -0.0011740679        4.9323658345
	 C          -0.1544120589       -2.2760035916        3.5867507136
	 C          -0.2172550707       -2.2527955159        0.9610298362
	 C          -0.0497210153        0.0517732417       -3.0934552252
	 H           0.1850210890        4.1631536748        0.0477978244
	 H           0.2748251291        4.0733038073        4.7131514621
	 H           0.0497151443       -0.0325639154        6.9842225966
	 H          -0.2588057667       -4.0645804337        4.5880997404
	 H          -0.3400157136       -4.0176506405       -0.0880829694
	 N          -1.2077946938       -1.8324302952       -4.4710611107
	 N           1.2456241997        1.7868322047       -4.3342887056
	 H           1.1866847961        1.8630937501       -6.2550285974
	 H           2.4357093231        2.9916364758       -3.4201172299
	 H          -0.1907917759       -3.2698767733       -5.2439186021
	 H          -3.1509941590       -2.0899821911       -4.3586233328
	             0.0105018528       -0.0055241936        0.0046520651
	            -0.0002933554        0.0013866881       -0.0012312643
	            -0.0010369084       -0.0004261558        0.0017049181
	             0.0003814522        0.0020661845        0.0008273166
	            -0.0002400966       -0.0006447974       -0.0010855357
	             0.0010589210        0.0011840558       -0.0007170189
	            -0.0060488884        0.0070763605       -0.0092747713
	             0.0006537193        0.0002551655       -0.0002391385
	             0.0000280067        0.0008391955        0.0003146467
	             0.0000220179        0.0001200602        0.0000861976
	            -0.0002107094       -0.0008552933       -0.0001276950
	             0.0006356668       -0.0027660341       -0.0007555784
	             0.0190987582       -0.0016872222        0.0048435461
	            -0.0045283508        0.0027165300        0.0044111942
	             0.0009028844        0.0004439077       -0.0016934996
	             0.0014340174        0.0019786739        0.0019352026
	             0.0015877912       -0.0091925872        0.0058155721
	            -0.0239508753        0.0030128660       -0.0094773967

	---Fragment 1 Intrafragment Coordinates---
	 - Coordinate -           - BOHR/RAD -       - ANG/DEG -
	 R(1,2)           =         2.675480	       1.415803
	 R(1,6)           =         2.666188	       1.410886
	 R(1,7)           =         2.757452	       1.459181
	 R(2,3)           =         2.625714	       1.389468
	 R(2,8)           =         2.054675	       1.087287
	 R(3,4)           =         2.647563	       1.401030
	 R(3,9)           =         2.052845	       1.086319
	 R(4,5)           =         2.649599	       1.402108
	 R(4,10)          =         2.052171	       1.085962
	 R(5,6)           =         2.626575	       1.389924
	 R(5,11)          =         2.052463	       1.086117
	 R(6,12)          =         2.056799	       1.088411
	 R(7,13)          =         2.605601	       1.378825
	 R(7,14)          =         2.495599	       1.320614
	 R(13,17)         =         1.922981	       1.017598
	 R(13,18)         =         1.963415	       1.038995
	 R(14,15)         =         1.923157	       1.017691
	 R(14,16)         =         1.924465	       1.018383
	 B(1,2,3)         =         2.091358	     119.825983
	 B(1,2,8)         =         2.102602	     120.470242
	 B(1,6,5)         =         2.085628	     119.497662
	 B(1,6,12)        =         2.098179	     120.216814
	 B(1,7,13)        =         2.136700	     122.423875
	 B(1,7,14)        =         2.082176	     119.299875
	 B(2,1,6)         =         2.096379	     120.113696
	 B(2,1,7)         =         2.114720	     121.164542
	 B(2,3,4)         =         2.089616	     119.726168
	 B(2,3,9)         =         2.093851	     119.968806
	 B(3,2,8)         =         2.087769	     119.620332
	 B(3,4,5)         =         2.106563	     120.697163
	 B(3,4,10)        =         2.087664	     119.614360
	 B(4,3,9)         =         2.099657	     120.301502
	 B(4,5,6)         =         2.096464	     120.118526
	 B(4,5,11)        =         2.099001	     120.263886
	 B(5,4,10)        =         2.088913	     119.685914
	 B(5,6,12)        =         2.098732	     120.248481
	 B(6,1,7)         =         2.072075	     118.721157
	 B(6,5,11)        =         2.087712	     119.617072
	 B(7,13,17)       =         2.115289	     121.197130
	 B(7,13,18)       =         2.099552	     120.295492
	 B(7,14,15)       =         2.103943	     120.547059
	 B(7,14,16)       =         2.117706	     121.335635
	 B(13,7,14)       =         2.060738	     118.071618
	 B(15,14,16)      =         2.058452	     117.940609
	 B(17,13,18)      =         2.035752	     116.640010
	 D(1,2,3,4)       =         0.012197	       0.698835
	 D(1,2,3,9)       =        -3.117515	    -178.620439
	 D(1,6,5,4)       =         0.026091	       1.494912
	 D(1,6,5,11)      =        -3.120051	    -178.765780
	*D(1,7,13,17)     =        -1.745330	    -100.000054
	 D(1,7,13,18)     =         1.115650	      63.922044
	 D(1,7,14,15)     =        -3.087238	    -176.885699
	 D(1,7,14,16)     =         0.140413	       8.045096
	 D(2,1,6,5)       =        -0.026170	      -1.499453
	 D(2,1,6,12)      =        -3.129227	    -179.291491
	 D(2,1,7,13)      =        -2.670184	    -152.990267
	 D(2,1,7,14)      =         0.563929	      32.310751
	 D(2,3,4,5)       =        -0.012386	      -0.709656
	 D(2,3,4,10)      =         3.139401	     179.874416
	 D(3,2,1,6)       =         0.006976	       0.399673
	 D(3,2,1,7)       =        -3.139619	    -179.886917
	 D(3,4,5,6)       =        -0.007008	      -0.401540
	 D(3,4,5,11)      =         3.139164	     179.860852
	 D(4,3,2,8)       =         3.096099	     177.393392
	 D(4,5,6,12)      =         3.129135	     179.286238
	 D(5,4,3,9)       =         3.117286	     178.607320
	 D(5,6,1,7)       =         3.120303	     178.780181
	 D(6,1,2,8)       =        -3.076428	    -176.266368
	 D(6,1,7,13)      =         0.466475	      26.727044
	 D(6,1,7,14)      =        -2.582598	    -147.971938
	 D(6,5,4,10)      =         3.124383	     179.013972
	 D(7,1,2,8)       =         0.060162	       3.447042
	 D(7,1,6,12)      =         0.017246	       0.988143
	 D(8,2,3,9)       =        -0.033613	      -1.925883
	 D(9,3,4,10)      =        -0.014113	      -0.808608
	 D(10,4,5,11)     =        -0.012630	      -0.723636
	 D(11,5,6,12)     =        -0.017007	      -0.974453
	 D(13,7,14,15)    =         0.142853	       8.184873
	 D(13,7,14,16)    =        -2.912681	    -166.884332
	 D(14,7,13,17)    =         1.304824	      74.760920
	 D(14,7,13,18)    =        -2.117381	    -121.316982

	Current energy   :      -381.4413541483

	Energy change for the previous step:
		Projected    :         0.0001399185
		Actual       :        -0.0097646279

	Performing BFGS update.
	Previous computed or guess Hessian on step 1.
	Steps to be used in Hessian update: 1
	Taking RFO optimization step.
	Going to follow RFO solution 1.
	Using RFO vector 1.

	Determining step-restricting scale parameter for RS-RFO.
	Maximum step size allowed    0.50000

	 Iter      |step|        alpha        rfo_root  
	------------------------------------------------
	    0     0.64054       1.00000           1
	    1     0.53502       1.64306           1
	    2     0.50317       1.92395           1
	    3     0.50003       1.95460           1
	    4     0.50000       1.95490           1
	------------------------------------------------
	Norm of target step-size    0.50000
	Projected energy change by RFO approximation:        -0.0038747602

	Back-transformation to cartesian coordinates...
	Could not converge backtransformation.
	Using first guess instead.

	Back-transformation to cartesian coordinates to adjust frozen coordinates...
	Successfully converged to displaced geometry.

	--- Internal Coordinate Step in ANG or DEG, aJ/ANG or AJ/DEG ---
	 ---------------------------------------------------------------------------
	   Coordinate                Previous        Force       Change         New 
	   ----------                --------       ------       ------       ------
	    1 R(1,2)          =      1.415803    -0.012906     0.001379     1.417183
	    2 R(1,6)          =      1.410886     0.000714     0.002015     1.412901
	    3 R(1,7)          =      1.459181    -0.028705    -0.007790     1.451391
	    4 R(2,3)          =      1.389468    -0.012057    -0.002155     1.387312
	    5 R(2,8)          =      1.087287    -0.002867     0.000076     1.087363
	    6 R(3,4)          =      1.401030     0.000865     0.001527     1.402557
	    7 R(3,9)          =      1.086319    -0.007272    -0.000354     1.085965
	    8 R(4,5)          =      1.402108    -0.023083    -0.001142     1.400966
	    9 R(4,10)         =      1.085962    -0.000702     0.000098     1.086060
	   10 R(5,6)          =      1.389924    -0.001953    -0.000473     1.389451
	   11 R(5,11)         =      1.086117    -0.005713    -0.000290     1.085827
	   12 R(6,12)         =      1.088411    -0.022409    -0.002214     1.086197
	   13 R(7,13)         =      1.378825    -0.053646     0.012090     1.390915
	   14 R(7,14)         =      1.320614    -0.001017    -0.002765     1.317850
	   15 R(13,17)        =      1.017598    -0.044264    -0.002439     1.015159
	   16 R(13,18)        =      1.038995    -0.187565     0.025745     1.064739
	   17 R(14,15)        =      1.017691    -0.013847     0.000559     1.018250
	   18 R(14,16)        =      1.018383    -0.025093    -0.000446     1.017937
	   19 B(1,2,3)        =    119.825983     0.000013     0.094613   119.920596
	   20 B(1,2,8)        =    120.470242    -0.000003     0.010910   120.481152
	   21 B(1,6,5)        =    119.497662     0.000082     0.201548   119.699210
	   22 B(1,6,12)       =    120.216814    -0.000098    -0.460525   119.756288
	   23 B(1,7,13)       =    122.423875     0.000141     1.141890   123.565765
	   24 B(1,7,14)       =    119.299875     0.000591     1.645683   120.945558
	   25 B(2,1,6)        =    120.113696    -0.000089    -0.264303   119.849394
	   26 B(2,1,7)        =    121.164542     0.000088     0.631904   121.796446
	   27 B(2,3,4)        =    119.726168     0.000048     0.022040   119.748208
	   28 B(2,3,9)        =    119.968806    -0.000011     0.059390   120.028197
	   29 B(3,2,8)        =    119.620332    -0.000010    -0.089989   119.530343
	   30 B(3,4,5)        =    120.697163    -0.000014     0.050460   120.747624
	   31 B(3,4,10)       =    119.614360     0.000016    -0.003941   119.610419
	   32 B(4,3,9)        =    120.301502    -0.000037    -0.085494   120.216008
	   33 B(4,5,6)        =    120.118526    -0.000042    -0.122458   119.996068
	   34 B(4,5,11)       =    120.263886    -0.000021    -0.077431   120.186455
	   35 B(5,4,10)       =    119.685914    -0.000003    -0.048629   119.637286
	   36 B(5,6,12)       =    120.248481     0.000016     0.265744   120.514225
	   37 B(6,1,7)        =    118.721157     0.000001    -0.367010   118.354147
	   38 B(6,5,11)       =    119.617072     0.000063     0.199776   119.816849
	   39 B(7,13,17)      =    121.197130     0.000042    -0.387312   120.809818
	   40 B(7,13,18)      =    120.295492    -0.000288    -4.389785   115.905707
	   41 B(7,14,15)      =    120.547059    -0.000111    -1.221945   119.325113
	   42 B(7,14,16)      =    121.335635     0.000092     0.861845   122.197479
	   43 B(13,7,14)      =    118.071618    -0.000735    -2.927657   115.143961
	   44 B(15,14,16)     =    117.940609     0.000019     0.362390   118.302999
	   45 B(17,13,18)     =    116.640010     0.000058    -1.688577   114.951433
	   46 D(1,2,3,4)      =      0.698835    -0.000007    -0.661937     0.036898
	   47 D(1,2,3,9)      =   -178.620439    -0.000004    -0.342885  -178.963325
	   48 D(1,6,5,4)      =      1.494912     0.000001     0.271701     1.766613
	   49 D(1,6,5,11)     =   -178.765780     0.000002     0.244579  -178.521201
	   50 *D(1,7,13,17)   =   -100.000054     0.000000    -0.000000  -100.000054
	   51 D(1,7,13,18)    =     63.922044    -0.000180   -17.235134    46.686910
	   52 D(1,7,14,15)    =   -176.885699     0.000003    -0.106451  -176.992151
	   53 D(1,7,14,16)    =      8.045096     0.000002    -0.154058     7.891038
	   54 D(2,1,6,5)      =     -1.499453    -0.000007    -0.912376    -2.411829
	   55 D(2,1,6,12)     =   -179.291491    -0.000009    -1.129538  -180.421029
	   56 D(2,1,7,13)     =   -152.990267    -0.000035    -4.512891  -157.503157
	   57 D(2,1,7,14)     =     32.310751    -0.000015    -2.740767    29.569984
	   58 D(2,3,4,5)      =     -0.709656     0.000001     0.016056    -0.693600
	   59 D(2,3,4,10)     =    179.874416     0.000002     0.221092   180.095508
	   60 D(3,2,1,6)      =      0.399673     0.000010     1.108813     1.508487
	   61 D(3,2,1,7)      =   -179.886917     0.000013     1.438732  -178.448185
	   62 D(3,4,5,6)      =     -0.401540     0.000002     0.183072    -0.218468
	   63 D(3,4,5,11)     =    179.860852     0.000001     0.209567   180.070419
	   64 D(4,3,2,8)      =    177.393392    -0.000004    -0.338390   177.055001
	   65 D(4,5,6,12)     =    179.286238     0.000002     0.474221   179.760459
	   66 D(5,4,3,9)      =    178.607320    -0.000002    -0.302600   178.304720
	   67 D(5,6,1,7)      =    178.780181    -0.000010    -1.233857   177.546324
	   68 D(6,1,2,8)      =   -176.266368     0.000007     0.785493  -175.480875
	   69 D(6,1,7,13)     =     26.727044    -0.000032    -4.187498    22.539546
	   70 D(6,1,7,14)     =   -147.971938    -0.000012    -2.415374  -150.387312
	   71 D(6,5,4,10)     =    179.013972     0.000001    -0.021759   178.992213
	   72 D(7,1,2,8)      =      3.447042     0.000010     1.115411     4.562453
	   73 D(7,1,6,12)     =      0.988143    -0.000012    -1.451019    -0.462876
	   74 D(8,2,3,9)      =     -1.925883    -0.000000    -0.019339    -1.945222
	   75 D(9,3,4,10)     =     -0.808608    -0.000001    -0.097564    -0.906172
	   76 D(10,4,5,11)    =     -0.723636    -0.000000     0.004736    -0.718900
	   77 D(11,5,6,12)    =     -0.974453     0.000003     0.447100    -0.527354
	   78 D(13,7,14,15)   =      8.184873     0.000012     1.331074     9.515947
	   79 D(13,7,14,16)   =   -166.884332     0.000011     1.283467  -165.600865
	   80 D(14,7,13,17)   =     74.760920    -0.000004    -1.460544    73.300376
	   81 D(14,7,13,18)   =   -121.316982    -0.000184   -18.695677  -140.012659
	 ---------------------------------------------------------------------------
	Successfully symmetrized geometry.

  ==> Convergence Check <==

  Measures of convergence in internal coordinates in au.
  Criteria marked as inactive (o), active & met (*), and active & unmet ( ).
  ---------------------------------------------------------------------------------------------
   Step     Total Energy     Delta E     MAX Force     RMS Force      MAX Disp      RMS Disp   
  ---------------------------------------------------------------------------------------------
    Convergence Criteria    1.00e-06 *    3.00e-04 *             o    1.20e-03 *             o
  ---------------------------------------------------------------------------------------------
      2    -381.44135415   -9.76e-03      2.28e-02      3.60e-03 o    3.26e-01      5.36e-02 o  ~
  ---------------------------------------------------------------------------------------------

	Writing optimization data to binary file.
	Structure for next step:
	Cartesian Geometry (in Angstrom)
	    C    -0.0340165597   0.0611435390  -0.1830868005
	    C     0.0990793552   1.2617810174   0.5579675075
	    C     0.1235557010   1.2201108785   1.9444378493
	    C     0.0170288052  -0.0122175500   2.6056375339
	    C    -0.1286000425  -1.2030232981   1.8821194356
	    C    -0.1734353857  -1.1712259059   0.4937562628
	    C    -0.0310509506   0.0539555655  -1.6344566559
	    H     0.1334386194   2.2225688137   0.0499676637
	    H     0.2085353129   2.1405819128   2.5143774586
	    H     0.0348786305  -0.0420885980   3.6911398304
	    H    -0.2114078319  -2.1519393445   2.4033885412
	    H    -0.2822255219  -2.0897505071  -0.0757183782
	    N    -0.5898414288  -0.9643575782  -2.3995944138
	    N     0.6344779197   0.9651456367  -2.3152883038
	    H     0.5823124844   0.9646919322  -3.3322006646
	    H     1.2604028760   1.6293230111  -1.8644196503
	    H    -0.0063874777  -1.6875139896  -2.8084631281
	    H    -1.5634755055  -1.2832535357  -2.1097460879
			--------------------------
			 OPTKING Finished Execution 
			--------------------------

    Structure for next step:
    Molecular point group: c1
    Full point group: C1

    Geometry (in Angstrom), charge = 1, multiplicity = 1:

    C           -0.034016559684     0.061143539025    -0.183086800486
    C            0.099079355224     1.261781017447     0.557967507489
    C            0.123555700962     1.220110878523     1.944437849257
    C            0.017028805202    -0.012217550018     2.605637533920
    C           -0.128600042452    -1.203023298112     1.882119435605
    C           -0.173435385670    -1.171225905903     0.493756262765
    C           -0.031050950610     0.053955565450    -1.634456655888
    H            0.133438619446     2.222568813701     0.049967663749
    H            0.208535312911     2.140581912767     2.514377458559
    H            0.034878630500    -0.042088597979     3.691139830401
    H           -0.211407831905    -2.151939344475     2.403388541200
    H           -0.282225521950    -2.089750507117    -0.075718378241
    N           -0.589841428818    -0.964357578163    -2.399594413759
    N            0.634477919667     0.965145636741    -2.315288303764
    H            0.582312484384     0.964691932235    -3.332200664567
    H            1.260402875976     1.629323011122    -1.864419650312
    H           -0.006387477711    -1.687513989579    -2.808463128055
    H           -1.563475505472    -1.283253535666    -2.109746087871

gradient() will perform analytic gradient computation.

*** tstart() called on computer04
*** at Tue Dec 12 14:36:54 2017


         ---------------------------------------------------------
                                   SCF
            by Justin Turney, Rob Parrish, and Andy Simmonett
                              RKS Reference
                        1 Threads,   3145 MiB Core
         ---------------------------------------------------------

  ==> Geometry <==

    Molecular point group: c1
    Full point group: C1

    Geometry (in Angstrom), charge = 1, multiplicity = 1:

       Center              X                  Y                   Z               Mass       
    ------------   -----------------  -----------------  -----------------  -----------------
           C         -0.034016559684     0.061143539025    -0.183086800486    12.000000000000
           C          0.099079355224     1.261781017447     0.557967507489    12.000000000000
           C          0.123555700962     1.220110878523     1.944437849257    12.000000000000
           C          0.017028805202    -0.012217550018     2.605637533920    12.000000000000
           C         -0.128600042452    -1.203023298112     1.882119435605    12.000000000000
           C         -0.173435385670    -1.171225905903     0.493756262765    12.000000000000
           C         -0.031050950610     0.053955565450    -1.634456655888    12.000000000000
           H          0.133438619446     2.222568813701     0.049967663749     1.007825032070
           H          0.208535312911     2.140581912767     2.514377458559     1.007825032070
           H          0.034878630500    -0.042088597979     3.691139830401     1.007825032070
           H         -0.211407831905    -2.151939344475     2.403388541200     1.007825032070
[...]
       7       -0.005982979639     0.004097693503     0.014055847984
       8       -0.000003488963     0.000058792595     0.000020791114
       9        0.000035096381     0.000032704439     0.000025455130
      10        0.000042471957    -0.000020715381     0.000029143620
      11       -0.000005648667    -0.000061600502     0.000010389136
      12       -0.000028782801    -0.000037883869    -0.000033895357
      13       -0.001918812928     0.012140108351    -0.012526957370
      14        0.000061264997    -0.000039504823     0.000052774235
      15       -0.000075643232    -0.000023661510    -0.000006314206
      16        0.000046415047     0.000046165804    -0.000024100478
      17        0.003338867355    -0.011409862858     0.006071843493
      18       -0.000000929907     0.000038157527    -0.000036281287


*** tstop() called on computer04 at Tue Dec 12 15:35:30 2017
Module time:
	user time   =      14.92 seconds =       0.25 minutes
	system time =       0.15 seconds =       0.00 minutes
	total time  =         15 seconds =       0.25 minutes
Total time:
	user time   =    3673.62 seconds =      61.23 minutes
	system time =      25.87 seconds =       0.43 minutes
	total time  =       3726 seconds =      62.10 minutes

			-----------------------------------------
			 OPTKING 2.0: for geometry optimizations 
			  - R.A. King,  Bethel University        
			-----------------------------------------
	At level 5: XYZ, RFO, backsteps, medium trust.

	Previous internal coordinate definitions found.
	---Fragment 1 Geometry and Gradient---
	 C          -0.1992802200        0.2255684227       -0.0604484393
	 C           1.5365801567        1.7054546973        1.3277389079
	 C           3.2325459206        0.5474957849        2.9603591618
	 C           3.2107440950       -2.0849217853        3.2346169840
	 C           1.4817907879       -3.5636767628        1.8875290687
	 C          -0.2336373924       -2.4219038202        0.2594908565
	 C          -1.9287435380        1.3952590368       -1.8454119979
	 H           1.4900646736        3.7546803060        1.2002684268
	 H           4.5498776627        1.6857681579        4.0438270031
	 H           4.5390275551       -2.9847283783        4.5139052021
	 H           1.4810802985       -5.6029380322        2.1028509150
	 H          -1.5316142599       -3.5841581726       -0.8236880470
	 N          -4.2027920879        0.3524502465       -2.5454919552
	 N          -1.2797078438        3.4624422565       -3.0918462651
	 H          -2.5624544313        4.3527327571       -4.2068162593
	 H           0.4886192491        4.1901044358       -2.9930785100
	 H          -4.2195819623       -0.5686653622       -4.2354324992
	 H          -4.9149790434       -0.8287188700       -1.2069742971
	             0.0044938304       -0.0048156744       -0.0076910814
	            -0.0000094949        0.0000025540        0.0000163260
	             0.0000263893        0.0000596627       -0.0000065750
	            -0.0000031175       -0.0000386540        0.0000236049
	             0.0000194296       -0.0000285767        0.0000122039
	            -0.0000479286       -0.0000035062       -0.0000167871
	            -0.0059829796        0.0040976935        0.0140558480
	            -0.0000034890        0.0000587926        0.0000207911
	             0.0000350964        0.0000327044        0.0000254551
	             0.0000424720       -0.0000207154        0.0000291436
	            -0.0000056487       -0.0000616005        0.0000103891
	            -0.0000287828       -0.0000378839       -0.0000338954
	            -0.0019188129        0.0121401084       -0.0125269574
	             0.0000612650       -0.0000395048        0.0000527742
	            -0.0000756432       -0.0000236615       -0.0000063142
	             0.0000464150        0.0000461658       -0.0000241005
	             0.0033388674       -0.0114098629        0.0060718435
	            -0.0000009299        0.0000381575       -0.0000362813

	---Fragment 1 Intrafragment Coordinates---
	 - Coordinate -           - BOHR/RAD -       - ANG/DEG -
	 R(1,X)           =        -0.199280	      -0.105455
	 R(1,Y)           =         0.225568	       0.119366
	 R(1,Z)           =        -0.060448	      -0.031988
	 R(2,X)           =         1.536580	       0.813123
	 R(2,Y)           =         1.705455	       0.902488
	 R(2,Z)           =         1.327739	       0.702609
	 R(3,X)           =         3.232546	       1.710590
	 R(3,Y)           =         0.547496	       0.289722
	 R(3,Z)           =         2.960359	       1.566555
	 R(4,X)           =         3.210744	       1.699053
	 R(4,Y)           =        -2.084922	      -1.103293
	 R(4,Z)           =         3.234617	       1.711686
	 R(5,X)           =         1.481791	       0.784130
	 R(5,Y)           =        -3.563677	      -1.885817
	 R(5,Z)           =         1.887529	       0.998837
	 R(6,X)           =        -0.233637	      -0.123636
	 R(6,Y)           =        -2.421904	      -1.281616
	 R(6,Z)           =         0.259491	       0.137317
	 R(7,X)           =        -1.928744	      -1.020647
	 R(7,Y)           =         1.395259	       0.738339
	 R(7,Z)           =        -1.845412	      -0.976550
	 R(8,X)           =         1.490065	       0.788508
	 R(8,Y)           =         3.754680	       1.986891
	 R(8,Z)           =         1.200268	       0.635155
	 R(9,X)           =         4.549878	       2.407692
	 R(9,Y)           =         1.685768	       0.892070
	 R(9,Z)           =         4.043827	       2.139901
	 R(10,X)          =         4.539028	       2.401950
	 R(10,Y)          =        -2.984728	      -1.579450
	 R(10,Z)          =         4.513905	       2.388656
	 R(11,X)          =         1.481080	       0.783754
	 R(11,Y)          =        -5.602938	      -2.964947
	 R(11,Z)          =         2.102851	       1.112781
	 R(12,X)          =        -1.531614	      -0.810495
	 R(12,Y)          =        -3.584158	      -1.896655
	 R(12,Z)          =        -0.823688	      -0.435877
	 R(13,X)          =        -4.202792	      -2.224022
	 R(13,Y)          =         0.352450	       0.186509
	 R(13,Z)          =        -2.545492	      -1.347016
	 R(14,X)          =        -1.279708	      -0.677192
	 R(14,Y)          =         3.462442	       1.832246
	 R(14,Z)          =        -3.091846	      -1.636135
	 R(15,X)          =        -2.562454	      -1.355992
	 R(15,Y)          =         4.352733	       2.303367
	 R(15,Z)          =        -4.206816	      -2.226151
	 R(16,X)          =         0.488619	       0.258566
	 R(16,Y)          =         4.190104	       2.217308
	 R(16,Z)          =        -2.993079	      -1.583869
	 R(17,X)          =        -4.219582	      -2.232907
	 R(17,Y)          =        -0.568665	      -0.300925
	 R(17,Z)          =        -4.235432	      -2.241294
	 R(18,X)          =        -4.914979	      -2.600895
	 R(18,Y)          =        -0.828719	      -0.438539
	 R(18,Z)          =        -1.206974	      -0.638703
	*D(1,7,13,17)     =        -1.745330	    -100.000054

	Current energy   :      -381.4528302353

	Energy change for the previous step:
		Projected    :        -0.0010882709
		Actual       :        -0.0000005330

	Performing BFGS update.
	Previous computed or guess Hessian on step 1.
	Steps to be used in Hessian update: 1
	Taking RFO optimization step.
	Going to follow RFO solution 1.
	Rejecting RFO root 1 because normalization gives large value.
	Rejecting RFO root 2 because normalization gives large value.
	Rejecting RFO root 3 because normalization gives large value.
	Using RFO vector 4.

	Determining step-restricting scale parameter for RS-RFO.
	Maximum step size allowed    0.20000

	 Iter      |step|        alpha        rfo_root  
	------------------------------------------------
	    0   233.80006       1.00000           4
	    1   116.93905       1.99896           4
	    2    58.50858       3.99374           4
	    3    29.29341       7.97084           4
	    4    14.68595      15.87538           4
	    5     7.38249      31.48776           4
	    6     3.73128      61.94104           4
	    7     1.90672     119.87990           4
	    8     0.99652     224.77519           4
	    9     0.54552     396.90885           4
	   10     0.32789     629.85425           4
	   11     0.23290     847.26668           4
	   12     0.20353     948.65147           4
	   13     0.20005     962.31494           4
	   14     0.20000     962.51583           4
	------------------------------------------------
	Norm of target step-size    0.20000
	Projected energy change by RFO approximation:         0.0021850554

	Back-transformation to cartesian coordinates...
	Successfully converged to displaced geometry.

	Back-transformation to cartesian coordinates to adjust frozen coordinates...
	Successfully converged to displaced geometry.

	--- Internal Coordinate Step in ANG or DEG, aJ/ANG or AJ/DEG ---
	 ---------------------------------------------------------------------------
	   Coordinate                Previous        Force       Change         New 
	   ----------                --------       ------       ------       ------
	    1 R(1,X)          =     -0.105455     0.000514     0.004128    -0.101327
	    2 R(1,Y)          =      0.119366    -0.000217     0.007718     0.127083
	    3 R(1,Z)          =     -0.031988     0.000853     0.022106    -0.009882
	    4 R(2,X)          =      0.813123     0.000078     0.012121     0.825244
	    5 R(2,Y)          =      0.902488    -0.000021     0.002394     0.904882
	    6 R(2,Z)          =      0.702609    -0.000135     0.017354     0.719963
	    7 R(3,X)          =      1.710590    -0.000217     0.012221     1.722811
	    8 R(3,Y)          =      0.289722    -0.000492    -0.003211     0.286511
	    9 R(3,Z)          =      1.566555     0.000054     0.013442     1.579996
	   10 R(4,X)          =      1.699053     0.000026     0.007180     1.706233
	   11 R(4,Y)          =     -1.103293     0.000318    -0.003714    -1.107007
	   12 R(4,Z)          =      1.711686    -0.000194     0.010555     1.722240
	   13 R(5,X)          =      0.784130    -0.000160     0.001562     0.785692
	   14 R(5,Y)          =     -1.885817     0.000235     0.001332    -1.884485
	   15 R(5,Z)          =      0.998837    -0.000101     0.012102     1.010940
	   16 R(6,X)          =     -0.123636     0.000395    -0.000735    -0.124370
	   17 R(6,Y)          =     -1.281616     0.000029     0.007185    -1.274431
	   18 R(6,Z)          =      0.137317     0.000138     0.018345     0.155661
	   19 R(7,X)          =     -1.020647    -0.001483     0.006029    -1.014619
	   20 R(7,Y)          =      0.738339    -0.000627     0.013884     0.752224
	   21 R(7,Z)          =     -0.976550    -0.000222     0.024177    -0.952373
	   22 R(8,X)          =      0.788508     0.000029     0.017793     0.806301
	   23 R(8,Y)          =      1.986891    -0.000484     0.002663     1.989554
	   24 R(8,Z)          =      0.635155    -0.000171     0.016973     0.652128
	   25 R(9,X)          =      2.407692    -0.000289     0.016988     2.424680
	   26 R(9,Y)          =      0.892070    -0.000269    -0.007143     0.884927
	   27 R(9,Z)          =      2.139901    -0.000210     0.011768     2.151669
	   28 R(10,X)         =      2.401950    -0.000350     0.007673     2.409622
	   29 R(10,Y)         =     -1.579450     0.000171    -0.008096    -1.587546
	   30 R(10,Z)         =      2.388656    -0.000240     0.007166     2.395822
	   31 R(11,X)         =      0.783754     0.000047    -0.000476     0.783278
	   32 R(11,Y)         =     -2.964947     0.000508     0.000749    -2.964199
	   33 R(11,Z)         =      1.112781    -0.000086     0.007775     1.120556
	   34 R(12,X)         =     -0.810495     0.000237    -0.004241    -0.814737
	   35 R(12,Y)         =     -1.896655     0.000312     0.011188    -1.885466
	   36 R(12,Z)         =     -0.435877     0.000279     0.018074    -0.417803
	   37 R(13,X)         =     -2.224022     0.001817     0.001599    -2.222423
	   38 R(13,Y)         =      0.186509     0.000100     0.020208     0.206717
	   39 R(13,Z)         =     -1.347016    -0.000478     0.031835    -1.315182
	   40 R(14,X)         =     -0.677192    -0.000505     0.011550    -0.665642
	   41 R(14,Y)         =      1.832246     0.000325     0.008047     1.840292
	   42 R(14,Z)         =     -1.636135    -0.000435     0.017901    -1.618233
	   43 R(15,X)         =     -1.355992     0.000623     0.012763    -1.343229
	   44 R(15,Y)         =      2.303367     0.000195     0.009488     2.312855
	   45 R(15,Z)         =     -2.226151     0.000052     0.017505    -2.208646
	   46 R(16,X)         =      0.258566    -0.000382     0.014683     0.273249
	   47 R(16,Y)         =      2.217308    -0.000380     0.001311     2.218619
	   48 R(16,Z)         =     -1.583869     0.000199     0.012084    -1.571785
	   49 R(17,X)         =     -2.232907    -0.000278    -0.011825    -2.244732
	   50 R(17,Y)         =     -0.300925     0.000643     0.016277    -0.284648
	   51 R(17,Z)         =     -2.241294     0.000592     0.034025    -2.207269
	   52 R(18,X)         =     -2.600895     0.000008     0.000090    -2.600805
	   53 R(18,Y)         =     -0.438539    -0.000314     0.027033    -0.411506
	   54 R(18,Z)         =     -0.638703     0.000299     0.036828    -0.601876
	   55 *D(1,7,13,17)   =   -100.000054     0.000000     0.000000  -100.000054
	 ---------------------------------------------------------------------------
	Successfully symmetrized geometry.

  ==> Convergence Check <==

  Measures of convergence in internal coordinates in au.
  Criteria marked as inactive (o), active & met (*), and active & unmet ( ).
  ---------------------------------------------------------------------------------------------
   Step     Total Energy     Delta E     MAX Force     RMS Force      MAX Disp      RMS Disp   
  ---------------------------------------------------------------------------------------------
    Convergence Criteria    1.00e-06 *    3.00e-04 *             o    1.20e-03 *             o
  ---------------------------------------------------------------------------------------------
      2    -381.45283024   -5.33e-07 *    2.21e-04 *    5.54e-05 o    6.96e-02      2.70e-02 o  ~
  ---------------------------------------------------------------------------------------------


  **** Optimization is complete! (in 2 steps) ****

  ==> Optimization Summary <==

  Measures of convergence in internal coordinates in au.
  --------------------------------------------------------------------------------------------------------------- ~
   Step         Total Energy             Delta E       MAX Force       RMS Force        MAX Disp        RMS Disp  ~
  --------------------------------------------------------------------------------------------------------------- ~
      1    -381.452829702290   -381.452829702290      0.00033863      0.00011493      0.05729498      0.02696804  ~
      2    -381.452830235303     -0.000000533014      0.00022055      0.00005540      0.06959425      0.02696799  ~
  --------------------------------------------------------------------------------------------------------------- ~

	Writing optimization data to binary file.
	Final energy is   -381.4528302353032
	Final (previous) structure:
	Cartesian Geometry (in Angstrom)
	    C    -0.1054545505   0.1193656683  -0.0319879364
	    C     0.8131231981   0.9024877561   0.7026091690
	    C     1.7105896269   0.2897222912   1.5665545976
	    C     1.6990525977  -1.1032930905   1.7116855865
	    C     0.7841299128  -1.8858165217   0.9988373637
	    C    -0.1236355831  -1.2816163030   0.1373166471
	    C    -1.0206471215   0.7383392824  -0.9765499697
	    H     0.7885082646   1.9868912435   0.6351546956
	    H     2.4076915610   0.8920700881   2.1399010855
	    H     2.4019499313  -1.5794502317   2.3886557547
	    H     0.7837539381  -2.9649471078   1.1127807773
	    H    -0.8104953587  -1.8966548169  -0.4358769415
	    N    -2.2240217854   0.1865086376  -1.3470163273
	    N    -0.6771922246   1.8322455282  -1.6361345759
	    H    -1.3559924831   2.3033669702  -2.2261512852
	    H     0.2585661703   2.2173077690  -1.5838689310
	    H    -2.2329066042  -0.3009247490  -2.2412943471
	    H    -2.6008948905  -0.4385391383  -0.6387032894
	Saving final (previous) structure.
			--------------------------
			 OPTKING Finished Execution 
			--------------------------

    Final optimized geometry and variables:
    Molecular point group: c1
    Full point group: C1

    Geometry (in Angstrom), charge = 1, multiplicity = 1:

    C           -0.105454550529     0.119365668280    -0.031987936355
    C            0.813123198110     0.902487756076     0.702609169038
    C            1.710589626916     0.289722291188     1.566554597647
    C            1.699052597692    -1.103293090482     1.711685586460
    C            0.784129912831    -1.885816521656     0.998837363681
    C           -0.123635583120    -1.281616303027     0.137316647090
    C           -1.020647121548     0.738339282360    -0.976549969730
    H            0.788508264613     1.986891243458     0.635154695643
    H            2.407691560965     0.892070088103     2.139901085507
    H            2.401949931329    -1.579450231652     2.388655754669
    H            0.783753938081    -2.964947107766     1.112780777255
    H           -0.810495358670    -1.896654816944    -0.435876941459
    N           -2.224021785362     0.186508637594    -1.347016327317
    N           -0.677192224570     1.832245528214    -1.636134575942
    H           -1.355992483093     2.303366970162    -2.226151285168
    H            0.258566170321     2.217307769049    -1.583868931024
    H           -2.232906604214    -0.300924748990    -2.241294347110
    H           -2.600894890470    -0.438539138310    -0.638703289392

	Cleaning optimization helper files.


Properties will be evaluated at   0.000000,   0.000000,   0.000000 Bohr

Properties computed using the  density matrix

  Nuclear Dipole Moment: (a.u.)
     X:     3.5425      Y:     1.9380      Z:     5.5167

  Electronic Dipole Moment: (a.u.)
     X:    -4.1320      Y:    -1.3113      Z:    -6.7419

  Dipole Moment: (a.u.)
     X:    -0.5895      Y:     0.6266      Z:    -1.2252     Total:     1.4971

  Dipole Moment: (Debye)
     X:    -1.4983      Y:     1.5927      Z:    -3.1141     Total:     3.8052

  Quadrupole Moment: (Debye Ang)
    XX:   -38.1989     YY:   -32.6221     ZZ:   -35.2657
    XY:     0.9024     XZ:    13.3313     YZ:    -8.6368

  Traceless Quadrupole Moment: (Debye Ang)
    XX:    -2.8367     YY:     2.7401     ZZ:     0.0965
    XY:     0.9024     XZ:    13.3313     YZ:    -8.6368

  Mulliken Charges: (a.u.)
   Center  Symbol    Alpha    Beta     Spin     Total
       1     C     2.93892  2.93892  0.00000  0.12216
       2     C     3.08299  3.08299  0.00000 -0.16597
       3     C     3.06173  3.06173  0.00000 -0.12346
       4     C     3.04953  3.04953  0.00000 -0.09906
       5     C     3.06185  3.06185  0.00000 -0.12370
       6     C     3.07890  3.07890  0.00000 -0.15780
       7     C     2.77020  2.77020  0.00000  0.45961
       8     H     0.41254  0.41254  0.00000  0.17492
       9     H     0.40292  0.40292  0.00000  0.19416
      10     H     0.40078  0.40078  0.00000  0.19845
      11     H     0.40310  0.40310  0.00000  0.19380
      12     H     0.41841  0.41841  0.00000  0.16318
      13     N     3.86574  3.86574  0.00000 -0.73148
      14     N     3.83732  3.83732  0.00000 -0.67464
      15     H     0.29751  0.29751  0.00000  0.40497
      16     H     0.30074  0.30074  0.00000  0.39852
      17     H     0.30446  0.30446  0.00000  0.39109
      18     H     0.31237  0.31237  0.00000  0.37526

   Total alpha = 32.00000, Total beta = 32.00000, Total charge =  1.00000


*** Psi4 exiting successfully. Buy a developer a beer!
