    -----------------------------------------------------------------------
          Psi4: An Open-Source Ab Initio Electronic Structure Package
                              Psi4 (no tag) Driver

                          Git: Rev {detached?}  

    J. M. Turney, A. C. Simmonett, R. M. Parrish, E. G. Hohenstein,
    F. A. Evangelista, J. T. Fermann, B. J. Mintz, L. A. Burns, J. J. Wilke,
    M. L. Abrams, N. J. Russ, M. L. Leininger, C. L. Janssen, E. T. Seidl,
    W. D. Allen, H. F. Schaefer, R. A. King, E. F. Valeev, C. D. Sherrill,
    and T. D. Crawford, WIREs Comput. Mol. Sci. 2, 556-565 (2012)
    (doi: 10.1002/wcms.93)

                         Additional Contributions by
    A. E. DePrince, M. Saitow, U. Bozkaya, A. Yu. Sokolov
    -----------------------------------------------------------------------


    Psi4 started on: Tue Jul  5 17:28:06 2016

    Process ID:  22932
    PSI4DATADIR: /export131/home/mjharvey/miniconda3/share
    Memory level set to 256.000 MB

  ==> Input File <==

--------------------------------------------------------------------------
set {
	reference rhf
	basis 6-31G*
}


set_num_threads( 1 )
memory 2 gb

molecule MOL {
0 1

H	 0.674387	 -3.106567	 3.822706
C	 0.617895	 -3.868945	 3.051920
C	 1.358291	 -5.137280	 3.474196
H	 -0.432179	 -4.074629	 2.866499
H	 1.039485	 -3.451079	 2.141728
C	 1.304075	 -6.231600	 2.405863
H	 0.929267	 -5.511902	 4.397883
H	 2.397985	 -4.892854	 3.686293
C	 1.646711	 -5.737294	 1.000328
H	 1.982947	 -7.033957	 2.672322
H	 0.303444	 -6.657390	 2.383916
C	 3.114438	 -5.390590	 0.798294
H	 1.407484	 -6.509501	 0.270782
H	 1.035657	 -4.878807	 0.730534
C	 3.475324	 -4.538016	 -0.405696
O	 3.959187	 -5.785981	 1.544264
C	 3.142513	 -5.197708	 -1.752249
H	 4.537138	 -4.332686	 -0.341611
H	 2.946782	 -3.589635	 -0.328876
C	 3.906992	 -6.506058	 -1.962969
H	 2.073565	 -5.394231	 -1.800676
H	 3.371148	 -4.517137	 -2.568350
C	 3.584233	 -7.172245	 -3.299729
H	 3.675183	 -7.191428	 -1.151430
H	 4.975620	 -6.311267	 -1.903941
H	 2.526789	 -7.408725	 -3.374670
H	 3.837980	 -6.523738	 -4.133494
H	 4.139105	 -8.097216	 -3.419829

	symmetry c1
}
set optking {
	frozen_dihedral = ("
		10 6 3 2,
		16 12 15 17
	")
}

ee = energy('scf')
oeprop('DIPOLE', 'QUADRUPOLE', 'MULLIKEN_CHARGES')
f=open( 'psi4out.xyz', 'w' )
f.write( "28  " )
f.write( str(ee) + "\n" )
f.write( MOL.save_string_xyz() )
f.close()
--------------------------------------------------------------------------

  Memory set to   2.000 GiB by Python script.

*** tstart() called on cx1-3-4-4.cx1.hpc.ic.ac.uk
*** at Tue Jul  5 17:28:06 2016


         ---------------------------------------------------------
                                   SCF
            by Justin Turney, Rob Parrish, and Andy Simmonett
                              RHF Reference
                        1 Threads,   2000 MiB Core
         ---------------------------------------------------------

  ==> Geometry <==

    Molecular point group: c1
    Full point group: C1

    Geometry (in Angstrom), charge = 0, multiplicity = 1:

       Center              X                  Y                   Z               Mass       
    ------------   -----------------  -----------------  -----------------  -----------------
           H         -1.934938213299     2.452655252700     3.341472019675     1.007825032070
           C         -1.991430213299     1.690277252700     2.570686019675    12.000000000000
           C         -1.251034213299     0.421942252700     2.992962019675    12.000000000000
           H         -3.041504213299     1.484593252700     2.385265019675     1.007825032070
           H         -1.569840213299     2.108143252700     1.660494019675     1.007825032070
           C         -1.305250213299    -0.672377747300     1.924629019675    12.000000000000
           H         -1.680058213299     0.047320252700     3.916649019675     1.007825032070
           H         -0.211340213299     0.666368252700     3.205059019675     1.007825032070
           C         -0.962614213299    -0.178071747300     0.519094019675    12.000000000000
           H         -0.626378213299    -1.474734747300     2.191088019675     1.007825032070
           H         -2.305881213299    -1.098167747300     1.902682019675     1.007825032070
           C          0.505112786701     0.168632252700     0.317060019675    12.000000000000
           H         -1.201841213299    -0.950278747300    -0.210451980325     1.007825032070
           H         -1.573668213299     0.680415252700     0.249300019675     1.007825032070
           C          0.865998786701     1.021206252700    -0.886929980325    12.000000000000
           O          1.349861786701    -0.226758747300     1.063030019675    15.994914619560
           C          0.533187786701     0.361514252700    -2.233482980325    12.000000000000
           H          1.927812786701     1.226536252700    -0.822844980325     1.007825032070
           H          0.337456786701     1.969587252700    -0.810109980325     1.007825032070
           C          1.297666786701    -0.946835747300    -2.444202980325    12.000000000000
           H         -0.535760213299     0.164991252700    -2.281909980325     1.007825032070
           H          0.761822786701     1.042085252700    -3.049583980325     1.007825032070
           C          0.974907786701    -1.613022747300    -3.780962980325    12.000000000000
           H          1.065857786701    -1.632205747300    -1.632663980325     1.007825032070
           H          2.366294786701    -0.752044747300    -2.385174980325     1.007825032070
           H         -0.082536213299    -1.849502747300    -3.855903980325     1.007825032070
           H          1.228654786701    -0.964515747300    -4.614727980325     1.007825032070
           H          1.529779786701    -2.537993747300    -3.901062980325     1.007825032070

  Running in c1 symmetry.

  Rotational constants: A =      0.08969  B =      0.01761  C =      0.01756 [cm^-1]
  Rotational constants: A =   2688.80952  B =    528.02454  C =    526.45456 [MHz]
  Nuclear repulsion =  551.509325388771003

  Charge       = 0
  Multiplicity = 1
  Electrons    = 80
  Nalpha       = 40
  Nbeta        = 40

  ==> Algorithm <==

  SCF Algorithm Type is DF.
  DIIS enabled.
  MOM disabled.
  Fractional occupation disabled.
  Guess Type is CORE.
  Energy threshold   = 1.00e-06
  Density threshold  = 1.00e-06
  Integral threshold = 0.00e+00

  ==> Primary Basis <==

  Basis Set: 6-31G*
    Number of shells: 96
    Number of basis function: 186
    Number of Cartesian functions: 186
    Spherical Harmonics?: false
    Max angular momentum: 2

  ==> Pre-Iterations <==

   -------------------------------------------------------
    Irrep   Nso     Nmo     Nalpha   Nbeta   Ndocc  Nsocc
   -------------------------------------------------------
     A        186     186       0       0       0       0
   -------------------------------------------------------
    Total     186     186      40      40      40       0
   -------------------------------------------------------

 OEINTS: Overlap, kinetic, potential, dipole, and quadrupole integrals
         stored in file 35.

  ==> Integral Setup <==

  ==> DFJK: Density-Fitted J/K Matrices <==

    J tasked:                  Yes
    K tasked:                  Yes
    wK tasked:                  No
    OpenMP threads:              1
    Integrals threads:           1
    Memory (MB):              1430
    Algorithm:                Core
    Integral Cache:           NONE
    Schwarz Cutoff:          1E-12
    Fitting Condition:       1E-12

   => Auxiliary Basis Set <=

  Basis Set: 
    Number of shells: 402
    Number of basis function: 1260
    Number of Cartesian functions: 1260
    Spherical Harmonics?: false
    Max angular momentum: 3

  Minimum eigenvalue in the overlap matrix is 3.2459330760E-03.
  Using Symmetric Orthogonalization.
  SCF Guess: Core (One-Electron) Hamiltonian.

  ==> Iterations <==

                           Total Energy        Delta E     RMS |[F,P]|

   @DF-RHF iter   1:  -231.06401272295057   -2.31064e+02   6.97771e-02 
   @DF-RHF iter   2:  -156.47614477989566    7.45879e+01   7.17243e-02 DIIS
   @DF-RHF iter   3:  -383.72028318348612   -2.27244e+02   3.09758e-02 DIIS
   @DF-RHF iter   4:  -364.33224484632001    1.93880e+01   4.59146e-02 DIIS
   @DF-RHF iter   5:  -409.17216660802876   -4.48399e+01   2.36527e-02 DIIS
   @DF-RHF iter   6:  -404.58726879724611    4.58490e+00   1.99610e-02 DIIS
   @DF-RHF iter   7:  -407.36140707783056   -2.77414e+00   2.11357e-02 DIIS
   @DF-RHF iter   8:  -425.55456754588386   -1.81932e+01   5.51967e-03 DIIS
   @DF-RHF iter   9:  -426.08054501707841   -5.25977e-01   1.84479e-03 DIIS
   @DF-RHF iter  10:  -426.14470696436047   -6.41619e-02   9.22322e-04 DIIS
   @DF-RHF iter  11:  -426.16198752983576   -1.72806e-02   2.66890e-04 DIIS
   @DF-RHF iter  12:  -426.16343438540207   -1.44686e-03   8.39492e-05 DIIS
   @DF-RHF iter  13:  -426.16365459419001   -2.20209e-04   3.10005e-05 DIIS
   @DF-RHF iter  14:  -426.16368426328881   -2.96691e-05   1.01367e-05 DIIS
   @DF-RHF iter  15:  -426.16368809451001   -3.83122e-06   3.47998e-06 DIIS
   @DF-RHF iter  16:  -426.16368863035132   -5.35841e-07   1.32981e-06 DIIS
   @DF-RHF iter  17:  -426.16368874468253   -1.14331e-07   5.01270e-07 DIIS

  ==> Post-Iterations <==

    Orbital Energies (a.u.)
    -----------------------

    Doubly Occupied:                                                      

       1A    -20.548731     2A    -11.322212     3A    -11.231585  
       4A    -11.228826     5A    -11.228730     6A    -11.222478  
       7A    -11.216891     8A    -11.214584     9A    -11.212768  
      10A    -11.210338    11A     -1.393789    12A     -1.096430  
      13A     -1.080030    14A     -1.018910    15A     -0.987620  
      16A     -0.911302    17A     -0.881656    18A     -0.812464  
      19A     -0.791555    20A     -0.716370    21A     -0.665759  
      22A     -0.650351    23A     -0.643786    24A     -0.617053  
      25A     -0.607395    26A     -0.597755    27A     -0.584453  
      28A     -0.552120    29A     -0.544430    30A     -0.539341  
      31A     -0.533794    32A     -0.510657    33A     -0.500332  
      34A     -0.485642    35A     -0.475959    36A     -0.469378  
      37A     -0.463954    38A     -0.462805    39A     -0.458898  
      40A     -0.393084  

    Virtual:                                                              

      41A      0.166436    42A      0.206814    43A      0.234174  
      44A      0.253081    45A      0.270042    46A      0.278614  
      47A      0.286010    48A      0.296143    49A      0.301396  
      50A      0.313886    51A      0.323097    52A      0.327905  
      53A      0.332669    54A      0.337035    55A      0.342436  
      56A      0.347553    57A      0.363065    58A      0.371595  
      59A      0.382192    60A      0.398825    61A      0.404478  
      62A      0.410309    63A      0.418852    64A      0.427969  
      65A      0.447811    66A      0.469058    67A      0.511739  
      68A      0.544707    69A      0.700091    70A      0.704716  
      71A      0.714991    72A      0.724440    73A      0.732347  
      74A      0.743665    75A      0.750494    76A      0.759018  
      77A      0.815659    78A      0.825062    79A      0.857237  
      80A      0.886302    81A      0.906104    82A      0.913664  
      83A      0.921127    84A      0.939543    85A      0.945781  
      86A      0.973477    87A      0.986926    88A      1.004843  
      89A      1.011745    90A      1.056775    91A      1.084008  
      92A      1.090985    93A      1.099024    94A      1.117832  
      95A      1.130256    96A      1.141948    97A      1.147923  
      98A      1.157283    99A      1.173277   100A      1.176031  
     101A      1.181454   102A      1.193155   103A      1.194208  
     104A      1.200898   105A      1.208758   106A      1.224549  
     107A      1.231235   108A      1.240149   109A      1.248305  
     110A      1.258065   111A      1.268760   112A      1.287613  
     113A      1.295144   114A      1.302841   115A      1.317745  
     116A      1.376105   117A      1.411514   118A      1.431388  
     119A      1.479017   120A      1.553099   121A      1.648637  
     122A      1.656940   123A      1.691986   124A      1.739359  
     125A      1.771865   126A      1.789927   127A      1.836386  
     128A      1.863167   129A      1.886791   130A      1.907918  
     131A      1.964346   132A      1.988781   133A      2.024824  
     134A      2.110733   135A      2.113736   136A      2.117623  
     137A      2.126205   138A      2.170920   139A      2.189390  
     140A      2.209646   141A      2.228267   142A      2.252112  
     143A      2.273381   144A      2.294922   145A      2.301337  
     146A      2.313524   147A      2.319062   148A      2.378241  
     149A      2.381866   150A      2.408398   151A      2.438504  
     152A      2.489043   153A      2.521246   154A      2.560262  
     155A      2.612087   156A      2.627819   157A      2.658091  
     158A      2.686978   159A      2.694034   160A      2.710326  
     161A      2.712065   162A      2.735217   163A      2.741881  
     164A      2.780787   165A      2.800423   166A      2.886757  
     167A      2.900426   168A      2.935714   169A      2.964865  
     170A      3.003606   171A      3.026063   172A      3.074020  
     173A      3.128974   174A      3.201142   175A      3.393228  
     176A      3.412222   177A      4.504164   178A      4.552640  
     179A      4.590683   180A      4.625634   181A      4.737487  
     182A      4.791760   183A      4.865909   184A      4.948800  
     185A      4.973430   186A      5.003444  

    Final Occupation by Irrep:
              A 
    DOCC [    40 ]

  Energy converged.

  @DF-RHF Final Energy:  -426.16368874468253

   => Energetics <=

    Nuclear Repulsion Energy =            551.5093253887710034
    One-Electron Energy =               -1671.1776926502780043
    Two-Electron Energy =                 693.5046785168245833
    DFT Exchange-Correlation Energy =       0.0000000000000000
    Empirical Dispersion Energy =           0.0000000000000000
    PCM Polarization Energy =               0.0000000000000000
    EFP Energy =                            0.0000000000000000
    Total Energy =                       -426.1636887446824176

    Alert: EFP and PCM quantities not currently incorporated into SCF psivars.

Properties will be evaluated at   0.000000,   0.000000,   0.000000 Bohr
  ==> Properties <==


Properties computed using the SCF density matrix

  Nuclear Dipole Moment: (a.u.)
     X:    -5.1928      Y:     0.5457      Z:    -4.4126

  Electronic Dipole Moment: (a.u.)
     X:     4.4444      Y:    -0.2567      Z:     3.6687

  Dipole Moment: (a.u.)
     X:    -0.7484      Y:     0.2890      Z:    -0.7440     Total:     1.0941

  Dipole Moment: (Debye)
     X:    -1.9023      Y:     0.7346      Z:    -1.8910     Total:     2.7810


  Saving occupied orbitals to File 180.

*** tstop() called on cx1-3-4-4.cx1.hpc.ic.ac.uk at Tue Jul  5 17:28:45 2016
Module time:
	user time   =      38.27 seconds =       0.64 minutes
	system time =       0.34 seconds =       0.01 minutes
	total time  =         39 seconds =       0.65 minutes
Total time:
	user time   =      38.27 seconds =       0.64 minutes
	system time =       0.34 seconds =       0.01 minutes
	total time  =         39 seconds =       0.65 minutes


Properties will be evaluated at   0.000000,   0.000000,   0.000000 Bohr

Properties computed using the  density matrix

  Nuclear Dipole Moment: (a.u.)
     X:    -5.1928      Y:     0.5457      Z:    -4.4126

  Electronic Dipole Moment: (a.u.)
     X:     4.4444      Y:    -0.2567      Z:     3.6687

  Dipole Moment: (a.u.)
     X:    -0.7484      Y:     0.2890      Z:    -0.7440     Total:     1.0941

  Dipole Moment: (Debye)
     X:    -1.9023      Y:     0.7346      Z:    -1.8910     Total:     2.7810

  Quadrupole Moment: (Debye Ang)
    XX:   -67.9837     YY:   -64.5739     ZZ:   -65.8296
    XY:     1.5039     XZ:    -4.2132     YZ:     0.2589

  Traceless Quadrupole Moment: (Debye Ang)
    XX:    -1.8546     YY:     1.5551     ZZ:     0.2995
    XY:     1.5039     XZ:    -4.2132     YZ:     0.2589

  Mulliken Charges: (a.u.)
   Center  Symbol    Alpha    Beta     Spin     Total
       1     H     0.41663  0.41663  0.00000  0.16673
       2     C     3.24338  3.24338  0.00000 -0.48677
       3     C     3.15826  3.15826  0.00000 -0.31652
       4     H     0.42268  0.42268  0.00000  0.15465
       5     H     0.42610  0.42610  0.00000  0.14779
       6     C     3.14955  3.14955  0.00000 -0.29909
       7     H     0.41928  0.41928  0.00000  0.16145
       8     H     0.40906  0.40906  0.00000  0.18189
       9     C     3.21871  3.21871  0.00000 -0.43743
      10     H     0.40475  0.40475  0.00000  0.19051
      11     H     0.42192  0.42192  0.00000  0.15616
      12     C     2.73147  2.73147  0.00000  0.53705
      13     H     0.40308  0.40308  0.00000  0.19384
      14     H     0.40905  0.40905  0.00000  0.18189
      15     C     3.20202  3.20202  0.00000 -0.40404
      16     O     4.26699  4.26699  0.00000 -0.53398
      17     C     3.16380  3.16380  0.00000 -0.32761
      18     H     0.40023  0.40023  0.00000  0.19955
      19     H     0.41095  0.41095  0.00000  0.17811
      20     C     3.15535  3.15535  0.00000 -0.31070
      21     H     0.41957  0.41957  0.00000  0.16086
      22     H     0.41386  0.41386  0.00000  0.17227
      23     C     3.23998  3.23998  0.00000 -0.47996
      24     H     0.41766  0.41766  0.00000  0.16468
      25     H     0.41634  0.41634  0.00000  0.16731
      26     H     0.42218  0.42218  0.00000  0.15564
      27     H     0.42096  0.42096  0.00000  0.15808
      28     H     0.41617  0.41617  0.00000  0.16765

   Total alpha = 40.00000, Total beta = 40.00000, Total charge =  0.00000


*** PSI4 exiting successfully. Buy a developer a beer!
