    -----------------------------------------------------------------------
          Psi4: An Open-Source Ab Initio Electronic Structure Package
                              Psi4 (no tag) Driver

                          Git: Rev {detached?}  

    J. M. Turney, A. C. Simmonett, R. M. Parrish, E. G. Hohenstein,
    F. A. Evangelista, J. T. Fermann, B. J. Mintz, L. A. Burns, J. J. Wilke,
    M. L. Abrams, N. J. Russ, M. L. Leininger, C. L. Janssen, E. T. Seidl,
    W. D. Allen, H. F. Schaefer, R. A. King, E. F. Valeev, C. D. Sherrill,
    and T. D. Crawford, WIREs Comput. Mol. Sci. 2, 556-565 (2012)
    (doi: 10.1002/wcms.93)

                         Additional Contributions by
    A. E. DePrince, M. Saitow, U. Bozkaya, A. Yu. Sokolov
    -----------------------------------------------------------------------


    Psi4 started on: Tue Jul  5 16:43:15 2016

    Process ID:  29940
    PSI4DATADIR: /export131/home/mjharvey/miniconda3/share
    Memory level set to 256.000 MB

  ==> Input File <==

--------------------------------------------------------------------------
set {
	reference rhf
	basis 6-31G*
}


set_num_threads( 1 )
memory 2 gb

molecule MOL {
0 1

H	 0.075655	 1.724700	 0.560390
N	 -0.456516	 0.876527	 0.541107
C	 0.411825	 -0.271767	 0.350028
H	 -1.096509	 0.942907	 -0.226429
C	 0.971803	 -0.268062	 -1.056935
H	 1.245876	 -0.313000	 1.051925
H	 -0.173567	 -1.175924	 0.486406
O	 -0.088814	 -0.446451	 -1.951562
H	 1.476952	 0.676258	 -1.258733
H	 1.695616	 -1.072886	 -1.164576
C	 -0.822895	 0.707763	 -2.209414
H	 -0.123672	 1.488428	 -2.476519
H	 -1.517943	 0.561408	 -3.034320
H	 -1.387312	 1.023704	 -1.334529

	symmetry c1
}
set optking {
	frozen_dihedral = ("
		8 5 3 6,
		6 3 2 4,
		5 8 11 13
	")
}

ee = energy('scf')
oeprop('DIPOLE', 'QUADRUPOLE', 'MULLIKEN_CHARGES')
f=open( 'psi4out.xyz', 'w' )
f.write( "14  " )
f.write( str(ee) + "\n" )
f.write( MOL.save_string_xyz() )
f.close()
--------------------------------------------------------------------------

  Memory set to   2.000 GiB by Python script.

*** tstart() called on cx1-3-6-4.cx1.hpc.ic.ac.uk
*** at Tue Jul  5 16:43:15 2016


         ---------------------------------------------------------
                                   SCF
            by Justin Turney, Rob Parrish, and Andy Simmonett
                              RHF Reference
                        1 Threads,   2000 MiB Core
         ---------------------------------------------------------

  ==> Geometry <==

    Molecular point group: c1
    Full point group: C1

    Geometry (in Angstrom), charge = 0, multiplicity = 1:

       Center              X                  Y                   Z               Mass       
    ------------   -----------------  -----------------  -----------------  -----------------
           H          0.087481292853     1.577712746630     1.440760540741     1.007825032070
           N         -0.444689707147     0.729539746630     1.421477540741    14.003074004780
           C          0.423651292853    -0.418754253370     1.230398540741    12.000000000000
           H         -1.084682707147     0.795919746630     0.653941540741     1.007825032070
           C          0.983629292853    -0.415049253370    -0.176564459259    12.000000000000
           H          1.257702292853    -0.459987253370     1.932295540741     1.007825032070
           H         -0.161740707147    -1.322911253370     1.366776540741     1.007825032070
           O         -0.076987707147    -0.593438253370    -1.071191459259    15.994914619560
           H          1.488778292853     0.529270746630    -0.378362459259     1.007825032070
           H          1.707442292853    -1.219873253370    -0.284205459259     1.007825032070
           C         -0.811068707147     0.560775746630    -1.329043459259    12.000000000000
           H         -0.111845707147     1.341440746630    -1.596148459259     1.007825032070
           H         -1.506116707147     0.414420746630    -2.153949459259     1.007825032070
           H         -1.375485707147     0.876716746630    -0.454158459259     1.007825032070

  Running in c1 symmetry.

  Rotational constants: A =      0.26204  B =      0.14570  C =      0.10586 [cm^-1]
  Rotational constants: A =   7855.79480  B =   4367.94686  C =   3173.47449 [MHz]
  Nuclear repulsion =  202.884004054296270

  Charge       = 0
  Multiplicity = 1
  Electrons    = 42
  Nalpha       = 21
  Nbeta        = 21

  ==> Algorithm <==

  SCF Algorithm Type is DF.
  DIIS enabled.
  MOM disabled.
  Fractional occupation disabled.
  Guess Type is CORE.
  Energy threshold   = 1.00e-06
  Density threshold  = 1.00e-06
  Integral threshold = 0.00e+00

  ==> Primary Basis <==

  Basis Set: 6-31G*
    Number of shells: 48
    Number of basis function: 93
    Number of Cartesian functions: 93
    Spherical Harmonics?: false
    Max angular momentum: 2

  ==> Pre-Iterations <==

   -------------------------------------------------------
    Irrep   Nso     Nmo     Nalpha   Nbeta   Ndocc  Nsocc
   -------------------------------------------------------
     A         93      93       0       0       0       0
   -------------------------------------------------------
    Total      93      93      21      21      21       0
   -------------------------------------------------------

 OEINTS: Overlap, kinetic, potential, dipole, and quadrupole integrals
         stored in file 35.

  ==> Integral Setup <==

  ==> DFJK: Density-Fitted J/K Matrices <==

    J tasked:                  Yes
    K tasked:                  Yes
    wK tasked:                  No
    OpenMP threads:              1
    Integrals threads:           1
    Memory (MB):              1430
    Algorithm:                Core
    Integral Cache:           NONE
    Schwarz Cutoff:          1E-12
    Fitting Condition:       1E-12

   => Auxiliary Basis Set <=

  Basis Set: 
    Number of shells: 201
    Number of basis function: 630
    Number of Cartesian functions: 630
    Spherical Harmonics?: false
    Max angular momentum: 3

  Minimum eigenvalue in the overlap matrix is 4.6734595644E-03.
  Using Symmetric Orthogonalization.
  SCF Guess: Core (One-Electron) Hamiltonian.

  ==> Iterations <==

                           Total Energy        Delta E     RMS |[F,P]|

   @DF-RHF iter   1:  -203.18907401554441   -2.03189e+02   7.87681e-02 
   @DF-RHF iter   2:  -171.39578383449629    3.17933e+01   7.86002e-02 DIIS
   @DF-RHF iter   3:  -230.88758181606380   -5.94918e+01   3.84457e-02 DIIS
   @DF-RHF iter   4:  -225.45667883525778    5.43090e+00   5.17980e-02 DIIS
   @DF-RHF iter   5:  -247.85320445064792   -2.23965e+01   7.19200e-03 DIIS
   @DF-RHF iter   6:  -248.04662259225699   -1.93418e-01   2.81767e-03 DIIS
   @DF-RHF iter   7:  -248.07238598416455   -2.57634e-02   9.52981e-04 DIIS
   @DF-RHF iter   8:  -248.07682735489050   -4.44137e-03   3.11395e-04 DIIS
   @DF-RHF iter   9:  -248.07739681463005   -5.69460e-04   1.03410e-04 DIIS
   @DF-RHF iter  10:  -248.07746782014226   -7.10055e-05   2.79724e-05 DIIS
   @DF-RHF iter  11:  -248.07747263811132   -4.81797e-06   1.06423e-05 DIIS
   @DF-RHF iter  12:  -248.07747329746337   -6.59352e-07   3.41834e-06 DIIS
   @DF-RHF iter  13:  -248.07747338743974   -8.99764e-08   5.70671e-07 DIIS

  ==> Post-Iterations <==

    Orbital Energies (a.u.)
    -----------------------

    Doubly Occupied:                                                      

       1A    -20.563807     2A    -15.527624     3A    -11.276412  
       4A    -11.269799     5A    -11.241856     6A     -1.391769  
       7A     -1.184542     8A     -1.013557     9A     -0.911894  
      10A     -0.833749    11A     -0.728791    12A     -0.673318  
      13A     -0.649238    14A     -0.620341    15A     -0.594428  
      16A     -0.560357    17A     -0.526725    18A     -0.515359  
      19A     -0.473997    20A     -0.439273    21A     -0.363129  

    Virtual:                                                              

      22A      0.227410    23A      0.265908    24A      0.274171  
      25A      0.289974    26A      0.303683    27A      0.323312  
      28A      0.329359    29A      0.332328    30A      0.349096  
      31A      0.417074    32A      0.436544    33A      0.450990  
      34A      0.555744    35A      0.738507    36A      0.754120  
      37A      0.780243    38A      0.783147    39A      0.816125  
      40A      0.820521    41A      0.848653    42A      0.909094  
      43A      0.975351    44A      1.018519    45A      1.072700  
      46A      1.085173    47A      1.116180    48A      1.128573  
      49A      1.147900    50A      1.158372    51A      1.186109  
      52A      1.214219    53A      1.224418    54A      1.243838  
      55A      1.255894    56A      1.300027    57A      1.356431  
      58A      1.452310    59A      1.486216    60A      1.587335  
      61A      1.603212    62A      1.717601    63A      1.779236  
      64A      1.782850    65A      1.868715    66A      1.930676  
      67A      2.001526    68A      2.036239    69A      2.211262  
      70A      2.245008    71A      2.341940    72A      2.362895  
      73A      2.378110    74A      2.425258    75A      2.472507  
      76A      2.482514    77A      2.525787    78A      2.565563  
      79A      2.648680    80A      2.714694    81A      2.762113  
      82A      2.826586    83A      2.898168    84A      2.931548  
      85A      3.022730    86A      3.087937    87A      3.133532  
      88A      3.297478    89A      4.300327    90A      4.398302  
      91A      4.652505    92A      4.748763    93A      4.898056  

    Final Occupation by Irrep:
              A 
    DOCC [    21 ]

  Energy converged.

  @DF-RHF Final Energy:  -248.07747338743974

   => Energetics <=

    Nuclear Repulsion Energy =            202.8840040542962697
    One-Electron Energy =                -739.2029714695175926
    Two-Electron Energy =                 288.2414940277809023
    DFT Exchange-Correlation Energy =       0.0000000000000000
    Empirical Dispersion Energy =           0.0000000000000000
    PCM Polarization Energy =               0.0000000000000000
    EFP Energy =                            0.0000000000000000
    Total Energy =                       -248.0774733874404205

    Alert: EFP and PCM quantities not currently incorporated into SCF psivars.

Properties will be evaluated at   0.000000,   0.000000,   0.000000 Bohr
  ==> Properties <==


Properties computed using the SCF density matrix

  Nuclear Dipole Moment: (a.u.)
     X:     0.2836      Y:     2.3694      Z:     0.4847

  Electronic Dipole Moment: (a.u.)
     X:     0.1212      Y:    -1.8076      Z:    -0.8187

  Dipole Moment: (a.u.)
     X:     0.4048      Y:     0.5618      Z:    -0.3340     Total:     0.7688

  Dipole Moment: (Debye)
     X:     1.0288      Y:     1.4279      Z:    -0.8489     Total:     1.9540


  Saving occupied orbitals to File 180.

*** tstop() called on cx1-3-6-4.cx1.hpc.ic.ac.uk at Tue Jul  5 16:43:20 2016
Module time:
	user time   =       4.91 seconds =       0.08 minutes
	system time =       0.04 seconds =       0.00 minutes
	total time  =          5 seconds =       0.08 minutes
Total time:
	user time   =       4.91 seconds =       0.08 minutes
	system time =       0.04 seconds =       0.00 minutes
	total time  =          5 seconds =       0.08 minutes


Properties will be evaluated at   0.000000,   0.000000,   0.000000 Bohr

Properties computed using the  density matrix

  Nuclear Dipole Moment: (a.u.)
     X:     0.2836      Y:     2.3694      Z:     0.4847

  Electronic Dipole Moment: (a.u.)
     X:     0.1212      Y:    -1.8076      Z:    -0.8187

  Dipole Moment: (a.u.)
     X:     0.4048      Y:     0.5618      Z:    -0.3340     Total:     0.7688

  Dipole Moment: (Debye)
     X:     1.0288      Y:     1.4279      Z:    -0.8489     Total:     1.9540

  Quadrupole Moment: (Debye Ang)
    XX:   -30.5804     YY:   -31.2642     ZZ:   -37.7463
    XY:    -0.5327     XZ:     3.8602     YZ:    -3.2038

  Traceless Quadrupole Moment: (Debye Ang)
    XX:     2.6166     YY:     1.9328     ZZ:    -4.5493
    XY:    -0.5327     XZ:     3.8602     YZ:    -3.2038

  Mulliken Charges: (a.u.)
   Center  Symbol    Alpha    Beta     Spin     Total
       1     H     0.33809  0.33809  0.00000  0.32382
       2     N     3.92613  3.92613  0.00000 -0.85227
       3     C     3.07012  3.07012  0.00000 -0.14024
       4     H     0.31399  0.31399  0.00000  0.37202
       5     C     3.00685  3.00685  0.00000 -0.01370
       6     H     0.42179  0.42179  0.00000  0.15641
       7     H     0.40928  0.40928  0.00000  0.18144
       8     O     4.30247  4.30247  0.00000 -0.60493
       9     H     0.43405  0.43405  0.00000  0.13189
      10     H     0.41496  0.41496  0.00000  0.17008
      11     C     3.08205  3.08205  0.00000 -0.16411
      12     H     0.42559  0.42559  0.00000  0.14881
      13     H     0.40725  0.40725  0.00000  0.18549
      14     H     0.44737  0.44737  0.00000  0.10526

   Total alpha = 21.00000, Total beta = 21.00000, Total charge =  0.00000


*** PSI4 exiting successfully. Buy a developer a beer!
