
    -----------------------------------------------------------------------
          Psi4: An Open-Source Ab Initio Electronic Structure Package
                               Psi4 1.1 release

                         Git: Rev {HEAD} add49b9 


    R. M. Parrish, L. A. Burns, D. G. A. Smith, A. C. Simmonett,
    A. E. DePrince III, E. G. Hohenstein, U. Bozkaya, A. Yu. Sokolov,
    R. Di Remigio, R. M. Richard, J. F. Gonthier, A. M. James,
    H. R. McAlexander, A. Kumar, M. Saitow, X. Wang, B. P. Pritchard,
    P. Verma, H. F. Schaefer III, K. Patkowski, R. A. King, E. F. Valeev,
    F. A. Evangelista, J. M. Turney, T. D. Crawford, and C. D. Sherrill,
    J. Chem. Theory Comput. in press (2017).
    (doi: 10.1021/acs.jctc.7b00174)

    -----------------------------------------------------------------------


    Psi4 started on: Tuesday, 12 December 2017 02:39PM

    Process ID:  18081
    PSIDATADIR: /shared/raimis/opt/miniconda/share/psi4
    Memory:     500.0 MiB
    Threads:    1
    
  ==> Input File <==

--------------------------------------------------------------------------
set_num_threads(1)
set_memory(3145728000)

set { reference rks }
set { basis 6-31G* }

molecule MOL {
    1 1
    noreorient
    nocom
    symmetry c1
    C    0.000000   0.000000  -0.177864
    C    0.036678   1.219374   0.524165
    C    0.031764   1.213119   1.915444
    C   -0.000000  -0.000000   2.610107
    C   -0.031764  -1.213119   1.915444
    C   -0.036677  -1.219374   0.524165
    C    0.000000  -0.000000  -1.644734
    H    0.018170   2.164705  -0.010853
    H    0.042402   2.152895   2.457886
    H   -0.000000  -0.000000   3.695756
    H   -0.042402  -2.152895   2.457886
    H   -0.018170  -2.164705  -0.010853
    N   -0.712590  -0.905950  -2.308460
    N    0.712590   0.905950  -2.308461
    H    0.673432   1.006469  -3.315997
    H    1.377190   1.485970  -1.813317
    H   -0.964148  -0.740567  -3.274199
    H   -0.969018  -1.802541  -1.912056
}

set optking { frozen_dihedral = (" 1 7 13 17 ") }

set optking { dynamic_level = 1 
 geom_maxiter = 250
 print_trajectory_xyz_file = True }

energy, wfn = optimize('B3LYP-D3', return_wfn=True)

import os
os.chdir(os.environ['HTMD_PSI4_WORKDIR'])

oeprop(wfn, 'DIPOLE', 'QUADRUPOLE', 'MULLIKEN_CHARGES')

with open('psi4out.xyz', 'w') as f:
    f.write('18 ' )
    f.write('%.12f\n' % energy)
    f.write(MOL.save_string_xyz())
--------------------------------------------------------------------------
  Threads set to 1 by Python driver.

  Memory set to   2.930 GiB by Python driver.
gradient() will perform analytic gradient computation.

*** tstart() called on computer06
*** at Tue Dec 12 14:39:45 2017

   => Loading Basis Set <=

    Name: 6-31G*
    Role: ORBITAL
    Keyword: BASIS
    atoms 1-7         entry C          line   102 file /shared/raimis/opt/miniconda/share/psi4/basis/6-31gs.gbs 
    atoms 8-12, 15-18 entry H          line    35 file /shared/raimis/opt/miniconda/share/psi4/basis/6-31gs.gbs 
    atoms 13-14       entry N          line   119 file /shared/raimis/opt/miniconda/share/psi4/basis/6-31gs.gbs 


         ---------------------------------------------------------
                                   SCF
            by Justin Turney, Rob Parrish, and Andy Simmonett
                              RKS Reference
                        1 Threads,   3000 MiB Core
         ---------------------------------------------------------

  ==> Geometry <==

    Molecular point group: c1
    Full point group: C1

    Geometry (in Angstrom), charge = 1, multiplicity = 1:

       Center              X                  Y                   Z               Mass       
    ------------   -----------------  -----------------  -----------------  -----------------
           C          0.000000000000     0.000000000000    -0.177864000000    12.000000000000
           C          0.036678000000     1.219374000000     0.524165000000    12.000000000000
           C          0.031764000000     1.213119000000     1.915444000000    12.000000000000
           C          0.000000000000     0.000000000000     2.610107000000    12.000000000000
           C         -0.031764000000    -1.213119000000     1.915444000000    12.000000000000
           C         -0.036677000000    -1.219374000000     0.524165000000    12.000000000000
           C          0.000000000000     0.000000000000    -1.644734000000    12.000000000000
           H          0.018170000000     2.164705000000    -0.010853000000     1.007825032070
           H          0.042402000000     2.152895000000     2.457886000000     1.007825032070
           H          0.000000000000     0.000000000000     3.695756000000     1.007825032070
           H         -0.042402000000    -2.152895000000     2.457886000000     1.007825032070
           H         -0.018170000000    -2.164705000000    -0.010853000000     1.007825032070
           N         -0.712590000000    -0.905950000000    -2.308460000000    14.003074004780
           N          0.712590000000     0.905950000000    -2.308461000000    14.003074004780
           H          0.673432000000     1.006469000000    -3.315997000000     1.007825032070
           H          1.377190000000     1.485970000000    -1.813317000000     1.007825032070
           H         -0.964148000000    -0.740567000000    -3.274199000000     1.007825032070
           H         -0.969018000000    -1.802541000000    -1.912056000000     1.007825032070

  Running in c1 symmetry.

  Rotational constants: A =      0.12182  B =      0.03959  C =      0.03126 [cm^-1]
  Rotational constants: A =   3651.97042  B =   1187.00206  C =    937.18614 [MHz]
  Nuclear repulsion =  416.889572021527158

  Charge       = 1
  Multiplicity = 1
  Electrons    = 64
  Nalpha       = 32
  Nbeta        = 32

  ==> Algorithm <==

  SCF Algorithm Type is DF.
  DIIS enabled.
  MOM disabled.
  Fractional occupation disabled.
  Guess Type is SAD.
  Energy threshold   = 1.00e-08
  Density threshold  = 1.00e-08
  Integral threshold = 0.00e+00

  ==> Primary Basis <==

  Basis Set: 6-31G*
    Blend: 6-31G*
    Number of shells: 72
    Number of basis function: 153
    Number of Cartesian functions: 153
    Spherical Harmonics?: false
    Max angular momentum: 2

  ==> DFT Potential <==

   => B3LYP Composite Functional <= 

    B3LYP Hybrid-GGA Exchange-Correlation Functional (VWN1-RPA)

    P.J. Stephens et. al., J. Phys. Chem., 98, 11623-11627, 1994

    Points   =           5000
    Deriv    =              1
    GGA      =           TRUE
    Meta     =          FALSE

    X_LRC        =          FALSE
    X_Hybrid     =           TRUE
    X_Alpha      =   2.000000E-01
    X_Omega      =   0.000000E+00
    C_LRC        =          FALSE
    C_Hybrid     =          FALSE
    C_Alpha      =   0.000000E+00
    C_Omega      =   0.000000E+00

   => Exchange Functionals <=

    0.8000    B3_X
    0.2000      HF 

   => Correlation Functionals <=

    0.1900 VWN3RPA_C
    0.8100   LYP_C

   => Molecular Quadrature <=

    Radial Scheme    =       TREUTLER
    Pruning Scheme   =           FLAT
    Nuclear Scheme   =       TREUTLER

    BS radius alpha  =              1
    Pruning alpha    =              1
    Radial Points    =             75
    Spherical Points =            302
    Total Points     =         396895
    Total Blocks     =            367
    Max Points       =           4934
    Max Functions    =            151

   => -D3ZERO: Empirical Dispersion <=

    Grimme's -D3 (zero-damping) Dispersion Correction
    Grimme S.; Antony J.; Ehrlich S.; Krieg H. (2010), J. Chem. Phys., 132: 154104

        S6 =   1.000000E+00
        S8 =   1.703000E+00
       SR6 =   1.261000E+00
    ALPHA6 =   1.400000E+01

   => Loading Basis Set <=

    Name: (6-31G* AUX)
    Role: JKFIT
    Keyword: DF_BASIS_SCF
    atoms 1-7         entry C          line   120 file /shared/raimis/opt/miniconda/share/psi4/basis/cc-pvdz-jkfit.gbs 
    atoms 8-12, 15-18 entry H          line    50 file /shared/raimis/opt/miniconda/share/psi4/basis/cc-pvdz-jkfit.gbs 
    atoms 13-14       entry N          line   170 file /shared/raimis/opt/miniconda/share/psi4/basis/cc-pvdz-jkfit.gbs 

  ==> Pre-Iterations <==

   -------------------------------------------------------
    Irrep   Nso     Nmo     Nalpha   Nbeta   Ndocc  Nsocc
   -------------------------------------------------------
     A        153     153       0       0       0       0
   -------------------------------------------------------
    Total     153     153      32      32      32       0
   -------------------------------------------------------

  ==> Integral Setup <==

  ==> DFJK: Density-Fitted J/K Matrices <==

    J tasked:                  Yes
    K tasked:                  Yes
    wK tasked:                  No
    OpenMP threads:              1
    Integrals threads:           1
    Memory (MB):              2250
    Algorithm:                Core
    Integral Cache:           NONE
    Schwarz Cutoff:          1E-12
    Fitting Condition:       1E-12

   => Auxiliary Basis Set <=

  Basis Set: (6-31G* AUX)
    Blend: CC-PVDZ-JKFIT
    Number of shells: 297
    Number of basis function: 954
    Number of Cartesian functions: 954
    Spherical Harmonics?: false
    Max angular momentum: 3

  Minimum eigenvalue in the overlap matrix is 4.8642419981E-04.
  Using Symmetric Orthogonalization.

  SCF Guess: Superposition of Atomic Densities via on-the-fly atomic UHF.

  ==> Iterations <==

                           Total Energy        Delta E     RMS |[F,P]|

   @DF-RKS iter   0:  -379.37915542037132   -3.79379e+02   3.34484e-02 
   @DF-RKS iter   1:  -380.99526189373120   -1.61611e+00   6.13292e-03 
   @DF-RKS iter   2:  -380.91557168168600    7.96902e-02   6.67357e-03 DIIS
   @DF-RKS iter   3:  -381.45134737714773   -5.35776e-01   8.67212e-04 DIIS
   @DF-RKS iter   4:  -381.45677097371521   -5.42360e-03   5.61624e-04 DIIS
   @DF-RKS iter   5:  -381.46049545234024   -3.72448e-03   1.33708e-04 DIIS
   @DF-RKS iter   6:  -381.46069164099220   -1.96189e-04   4.37033e-05 DIIS
   @DF-RKS iter   7:  -381.46071480075716   -2.31598e-05   8.80195e-06 DIIS
   @DF-RKS iter   8:  -381.46071555361146   -7.52854e-07   3.01774e-06 DIIS
   @DF-RKS iter   9:  -381.46071565029411   -9.66826e-08   7.33723e-07 DIIS
   @DF-RKS iter  10:  -381.46071565573101   -5.43690e-09   2.73878e-07 DIIS
   @DF-RKS iter  11:  -381.46071565654933   -8.18318e-10   3.42694e-08 DIIS
   @DF-RKS iter  12:  -381.46071565655137   -2.04636e-12   3.09332e-08 DIIS
   @DF-RKS iter  13:  -381.46071565656354   -1.21645e-11   6.37962e-09 DIIS

  ==> Post-Iterations <==

    Orbital Energies (a.u.)
    -----------------------

    Doubly Occupied:                                                      

       1A    -14.570842     2A    -14.563710     3A    -10.499441  
       4A    -10.373693     5A    -10.357179     6A    -10.356248  
       7A    -10.342140     8A    -10.340652     9A    -10.340092  
      10A     -1.184777    11A     -1.092009    12A     -1.014350  
      13A     -0.926769    14A     -0.902494    15A     -0.845977  
      16A     -0.786253    17A     -0.773960    18A     -0.740916  
      19A     -0.733040    20A     -0.691929    21A     -0.670714  
      22A     -0.629493    23A     -0.613392    24A     -0.590216  
      25A     -0.577341    26A     -0.573441    27A     -0.516631  
      28A     -0.506523    29A     -0.498477    30A     -0.469327  
      31A     -0.409439    32A     -0.405450  

    Virtual:                                                              

      33A     -0.220901    34A     -0.156569    35A     -0.136824  
      36A     -0.111492    37A     -0.074030    38A     -0.058094  
      39A     -0.039602    40A     -0.031402    41A      0.007300  
      42A      0.019674    43A      0.028057    44A      0.060466  
      45A      0.066497    46A      0.084873    47A      0.123286  
      48A      0.149227    49A      0.156935    50A      0.165156  
      51A      0.205398    52A      0.242603    53A      0.298108  
      54A      0.350327    55A      0.354698    56A      0.379445  
      57A      0.389078    58A      0.397587    59A      0.420474  
      60A      0.423097    61A      0.440863    62A      0.450267  
      63A      0.453670    64A      0.471072    65A      0.471658  
      66A      0.474871    67A      0.486137    68A      0.503470  
      69A      0.513493    70A      0.537891    71A      0.544058  
      72A      0.589452    73A      0.610255    74A      0.651404  
      75A      0.663229    76A      0.679199    77A      0.689844  
      78A      0.705304    79A      0.716554    80A      0.723710  
      81A      0.760336    82A      0.772980    83A      0.775818  
      84A      0.807036    85A      0.815105    86A      0.838916  
      87A      0.851450    88A      0.930518    89A      0.959223  
      90A      0.975455    91A      1.001459    92A      1.022473  
      93A      1.023421    94A      1.070343    95A      1.140593  
      96A      1.165556    97A      1.259559    98A      1.271271  
      99A      1.279670   100A      1.310894   101A      1.323150  
     102A      1.342391   103A      1.352865   104A      1.363164  
     105A      1.400309   106A      1.451871   107A      1.528006  
     108A      1.614617   109A      1.623262   110A      1.650708  
     111A      1.678944   112A      1.736602   113A      1.752212  
     114A      1.797221   115A      1.825862   116A      1.834466  
     117A      1.896456   118A      1.924427   119A      1.957921  
     120A      1.980359   121A      1.995724   122A      2.016020  
     123A      2.024888   124A      2.064425   125A      2.115842  
     126A      2.127994   127A      2.151694   128A      2.192744  
     129A      2.217504   130A      2.284587   131A      2.339857  
     132A      2.381817   133A      2.447090   134A      2.452290  
     135A      2.489132   136A      2.523256   137A      2.545086  
     138A      2.589626   139A      2.603932   140A      2.628572  
     141A      2.737827   142A      2.871849   143A      2.985729  
     144A      3.258508   145A      3.633081   146A      3.659740  
     147A      3.915352   148A      3.948424   149A      3.963737  
     150A      4.050826   151A      4.173538   152A      4.255779  
     153A      4.546326  

    Final Occupation by Irrep:
              A 
    DOCC [    32 ]

  Energy converged.

  @DF-RKS Final Energy:  -381.46071565656354

   => Energetics <=

    Nuclear Repulsion Energy =            416.8895720215271581
    One-Electron Energy =               -1328.9583921471125905
    Two-Electron Energy =                 575.0267146993563756
    DFT Exchange-Correlation Energy =     -44.4067456503344147
    Empirical Dispersion Energy =          -0.0118645800000000
    PCM Polarization Energy =               0.0000000000000000
    EFP Energy =                            0.0000000000000000
    Total Energy =                       -381.4607156565635364



Properties will be evaluated at   0.000000,   0.000000,   0.000000 Bohr

Properties computed using the SCF density matrix

  Nuclear Dipole Moment: (a.u.)
     X:     0.2220      Y:    -0.0958      Z:    -0.0828

  Electronic Dipole Moment: (a.u.)
     X:    -0.1352      Y:     0.0975      Z:    -2.2048

  Dipole Moment: (a.u.)
     X:     0.0868      Y:     0.0018      Z:    -2.2877     Total:     2.2893

  Dipole Moment: (Debye)
     X:     0.2206      Y:     0.0045      Z:    -5.8147     Total:     5.8189


*** tstop() called on computer06 at Tue Dec 12 14:40:51 2017
Module time:
	user time   =      64.78 seconds =       1.08 minutes
	system time =       0.61 seconds =       0.01 minutes
	total time  =         66 seconds =       1.10 minutes
Total time:
	user time   =      64.78 seconds =       1.08 minutes
	system time =       0.61 seconds =       0.01 minutes
	total time  =         66 seconds =       1.10 minutes

*** tstart() called on computer06
*** at Tue Dec 12 14:40:51 2017


         ------------------------------------------------------------
                                   SCF GRAD                          
                          Rob Parrish, Justin Turney,                
                       Andy Simmonett, and Alex Sokolov              
         ------------------------------------------------------------

  ==> Geometry <==

    Molecular point group: c1
    Full point group: C1

    Geometry (in Angstrom), charge = 1, multiplicity = 1:

       Center              X                  Y                   Z               Mass       
    ------------   -----------------  -----------------  -----------------  -----------------
           C          0.000000000000     0.000000000000    -0.177864000000    12.000000000000
           C          0.036678000000     1.219374000000     0.524165000000    12.000000000000
           C          0.031764000000     1.213119000000     1.915444000000    12.000000000000
           C          0.000000000000     0.000000000000     2.610107000000    12.000000000000
           C         -0.031764000000    -1.213119000000     1.915444000000    12.000000000000
           C         -0.036677000000    -1.219374000000     0.524165000000    12.000000000000
           C          0.000000000000     0.000000000000    -1.644734000000    12.000000000000
           H          0.018170000000     2.164705000000    -0.010853000000     1.007825032070
           H          0.042402000000     2.152895000000     2.457886000000     1.007825032070
           H          0.000000000000     0.000000000000     3.695756000000     1.007825032070
           H         -0.042402000000    -2.152895000000     2.457886000000     1.007825032070
           H         -0.018170000000    -2.164705000000    -0.010853000000     1.007825032070
           N         -0.712590000000    -0.905950000000    -2.308460000000    14.003074004780
           N          0.712590000000     0.905950000000    -2.308461000000    14.003074004780
           H          0.673432000000     1.006469000000    -3.315997000000     1.007825032070
           H          1.377190000000     1.485970000000    -1.813317000000     1.007825032070
           H         -0.964148000000    -0.740567000000    -3.274199000000     1.007825032070
           H         -0.969018000000    -1.802541000000    -1.912056000000     1.007825032070

  Nuclear repulsion =  416.889572021527158

  ==> Basis Set <==

  Basis Set: 6-31G*
    Blend: 6-31G*
    Number of shells: 72
    Number of basis function: 153
    Number of Cartesian functions: 153
    Spherical Harmonics?: false
    Max angular momentum: 2

  ==> DFJKGrad: Density-Fitted SCF Gradients <==

    Gradient:                    1
    J tasked:                  Yes
    K tasked:                  Yes
    wK tasked:                  No
    OpenMP threads:              1
    Integrals threads:           1
    Memory (MB):              2250
    Schwarz Cutoff:          0E+00
    Fitting Condition:       1E-12

   => Auxiliary Basis Set <=

  Basis Set: (6-31G* AUX)
    Blend: CC-PVDZ-JKFIT
    Number of shells: 297
    Number of basis function: 954
    Number of Cartesian functions: 954
    Spherical Harmonics?: false
    Max angular momentum: 3

  ==> DFT Potential <==

   => B3LYP Composite Functional <= 

    B3LYP Hybrid-GGA Exchange-Correlation Functional (VWN1-RPA)

    P.J. Stephens et. al., J. Phys. Chem., 98, 11623-11627, 1994

    Points   =           5000
    Deriv    =              1
    GGA      =           TRUE
    Meta     =          FALSE

    X_LRC        =          FALSE
    X_Hybrid     =           TRUE
    X_Alpha      =   2.000000E-01
    X_Omega      =   0.000000E+00
    C_LRC        =          FALSE
    C_Hybrid     =          FALSE
    C_Alpha      =   0.000000E+00
    C_Omega      =   0.000000E+00

   => Exchange Functionals <=

    0.8000    B3_X
    0.2000      HF 

   => Correlation Functionals <=

    0.1900 VWN3RPA_C
    0.8100   LYP_C

   => Molecular Quadrature <=

    Radial Scheme    =       TREUTLER
    Pruning Scheme   =           FLAT
    Nuclear Scheme   =       TREUTLER

    BS radius alpha  =              1
    Pruning alpha    =              1
    Radial Points    =             75
    Spherical Points =            302
    Total Points     =         396895
    Total Blocks     =            367
    Max Points       =           4934
    Max Functions    =            151


  -Total Gradient:
     Atom            X                  Y                   Z
    ------   -----------------  -----------------  -----------------
       1       -0.006835434760     0.004405663336    -0.001883084508
       2       -0.000922856780     0.000326688445     0.001492996383
       3        0.000733661062     0.001002345150    -0.000837040041
       4       -0.000127142392    -0.000879498224     0.000044634474
       5       -0.000020963933     0.000900169212     0.000831068266
       6        0.000006984559    -0.002417823577    -0.001197843164
       7       -0.005718746982     0.002837655428    -0.005435215751
       8       -0.000228977883     0.000027431026    -0.000084202617
       9        0.000092306407    -0.000032536935     0.000079173774
      10       -0.000016069714     0.000053047656     0.000047962288
      11        0.000051181311    -0.000017330243    -0.000050445315
      12       -0.000105044291     0.000936802615    -0.001173710099
      13        0.002353813790    -0.001645344473     0.009676925320
      14        0.006356864806    -0.003624664327    -0.000878678758
      15       -0.001578625794     0.001303510659     0.000376983812
      16        0.003091002824    -0.002926944325    -0.000660444320
      17       -0.004968364730     0.007013906477     0.004276474550
      18        0.007832137520    -0.007263451123    -0.004640044703


*** tstop() called on computer06 at Tue Dec 12 14:41:08 2017
Module time:
	user time   =      16.59 seconds =       0.28 minutes
	system time =       0.28 seconds =       0.00 minutes
	total time  =         17 seconds =       0.28 minutes
Total time:
	user time   =      81.38 seconds =       1.36 minutes
	system time =       0.90 seconds =       0.01 minutes
	total time  =         83 seconds =       1.38 minutes

			-----------------------------------------
			 OPTKING 2.0: for geometry optimizations 
			  - R.A. King,  Bethel University        
			-----------------------------------------
	At level 1: Red. Int., RFO, no backsteps, dynamic trust

	Internal coordinates to be generated automatically.
	Detected frag 1 with atoms:  1 2 3 4 5 6 7 8 9 10 11 12 13 14 15 16 17 18
	---Fragment 1 Bond Connectivity---
	 1 : 2 6 7
	 2 : 1 3 8
	 3 : 2 4 9
	 4 : 3 5 10
	 5 : 4 6 11
	 6 : 1 5 12
	 7 : 1 13 14
	 8 : 2
	 9 : 3
	 10 : 4
	 11 : 5
	 12 : 6
	 13 : 7 17 18
	 14 : 7 15 16
	 15 : 14
	 16 : 14
	 17 : 13
	 18 : 13

	Assuming in current code that numbering for constraints corresponds to unified fragment.
	Frozen dihedral atom list: 
	     1     7    13    17
	---Fragment 1 Geometry and Gradient---
	 C           0.0000000000        0.0000000000       -0.3361142489
	 C           0.0693113751        2.3042829136        0.9905282984
	 C           0.0600252609        2.2924626766        3.6196645829
	 C           0.0000000000        0.0000000000        4.9323874075
	 C          -0.0600252609       -2.2924626766        3.6196645829
	 C          -0.0693094854       -2.3042829136        0.9905282984
	 C           0.0000000000        0.0000000000       -3.1080968214
	 H           0.0343363238        4.0906996085       -0.0205091977
	 H           0.0801281675        4.0683819429        4.6447314059
	 H           0.0000000000        0.0000000000        6.9839666940
	 H          -0.0801281675       -4.0683819429        4.6447314059
	 H          -0.0343363238       -4.0906996085       -0.0205091977
	 N          -1.3465999450       -1.7119973901       -4.3623571887
	 N           1.3465999450        1.7119973901       -4.3623590784
	 H           1.2726020491        1.9019507712       -6.2663261875
	 H           2.6025119329        2.8080763417       -3.4266725221
	 H          -1.8219756716       -1.3994688131       -6.1873394146
	 H          -1.8311786378       -3.4063088333       -3.6132621907
	            -0.0068354348        0.0044056633       -0.0018830845
	            -0.0009228568        0.0003266884        0.0014929964
	             0.0007336611        0.0010023452       -0.0008370400
	            -0.0001271424       -0.0008794982        0.0000446345
	            -0.0000209639        0.0009001692        0.0008310683
	             0.0000069846       -0.0024178236       -0.0011978432
	            -0.0057187470        0.0028376554       -0.0054352158
	            -0.0002289779        0.0000274310       -0.0000842026
	             0.0000923064       -0.0000325369        0.0000791738
	            -0.0000160697        0.0000530477        0.0000479623
	             0.0000511813       -0.0000173302       -0.0000504453
	            -0.0001050443        0.0009368026       -0.0011737101
	             0.0023538138       -0.0016453445        0.0096769253
	             0.0063568648       -0.0036246643       -0.0008786788
	            -0.0015786258        0.0013035107        0.0003769838
	             0.0030910028       -0.0029269443       -0.0006604443
	            -0.0049683647        0.0070139065        0.0042764746
	             0.0078321375       -0.0072634511       -0.0046400447

	Previous optimization step data not found.  Starting new optimization.

	---Fragment 1 Intrafragment Coordinates---
	 - Coordinate -           - BOHR/RAD -       - ANG/DEG -
	 R(1,2)           =         2.659794	       1.407502
	 R(1,6)           =         2.659794	       1.407502
	 R(1,7)           =         2.771983	       1.466870
	 R(2,3)           =         2.629179	       1.391302
	 R(2,8)           =         2.052975	       1.086387
	 R(3,4)           =         2.642391	       1.398293
	 R(3,9)           =         2.050623	       1.085143
	 R(4,5)           =         2.642391	       1.398293
	 R(4,10)          =         2.051579	       1.085649
	 R(5,6)           =         2.629179	       1.391302
	 R(5,11)          =         2.050623	       1.085143
	 R(6,12)          =         2.052975	       1.086387
	 R(7,13)          =         2.513451	       1.330061
	 R(7,14)          =         2.513452	       1.330061
	 R(13,17)         =         1.911600	       1.011575
	 R(13,18)         =         1.914850	       1.013295
	 R(14,15)         =         1.914850	       1.013295
	 R(14,16)         =         1.911600	       1.011575
	 B(1,2,3)         =         2.088380	     119.655334
	 B(1,2,8)         =         2.103396	     120.515735
	 B(1,6,5)         =         2.088380	     119.655336
	 B(1,6,12)        =         2.103396	     120.515739
	 B(1,7,13)        =         2.093263	     119.935135
	 B(1,7,14)        =         2.093264	     119.935172
	 B(2,1,6)         =         2.097220	     120.161836
	 B(2,1,7)         =         2.092983	     119.919082
	 B(2,3,4)         =         2.095280	     120.050699
	 B(2,3,9)         =         2.089718	     119.732039
	 B(3,2,8)         =         2.090149	     119.756716
	 B(3,4,5)         =         2.101792	     120.423818
	 B(3,4,10)        =         2.090697	     119.788091
	 B(4,3,9)         =         2.098135	     120.214304
	 B(4,5,6)         =         2.095280	     120.050698
	 B(4,5,11)        =         2.098135	     120.214304
	 B(5,4,10)        =         2.090697	     119.788091
	 B(5,6,12)        =         2.090149	     119.756718
	 B(6,1,7)         =         2.092983	     119.919082
	 B(6,5,11)        =         2.089718	     119.732040
	 B(7,13,17)       =         2.092411	     119.886310
	 B(7,13,18)       =         2.144860	     122.891433
	 B(7,14,15)       =         2.144860	     122.891403
	 B(7,14,16)       =         2.092412	     119.886356
	 B(13,7,14)       =         2.096659	     120.129694
	 B(15,14,16)      =         2.043400	     117.078183
	 B(17,13,18)      =         2.043400	     117.078187
	 D(1,2,3,4)       =         0.007800	       0.446917
	 D(1,2,3,9)       =        -3.122897	    -178.928796
	 D(1,6,5,4)       =         0.007799	       0.446823
	 D(1,6,5,11)      =        -3.122897	    -178.928843
	*D(1,7,13,17)     =         2.792528	     160.000067
	 D(1,7,13,18)     =        -0.427484	     -24.493046
	 D(1,7,14,15)     =        -3.032165	    -173.730265
	 D(1,7,14,16)     =         0.187844	      10.762677
	 D(2,1,6,5)       =        -0.003905	      -0.223756
	 D(2,1,6,12)      =        -3.091438	    -177.126344
	 D(2,1,7,13)      =        -2.505167	    -143.535494
	 D(2,1,7,14)      =         0.636426	      36.464506
	 D(2,3,4,5)       =        -0.003943	      -0.225922
	 D(2,3,4,10)      =         3.137650	     179.774078
	 D(3,2,1,6)       =        -0.003908	      -0.223897
	 D(3,2,1,7)       =         3.137686	     179.776150
	 D(3,4,5,6)       =        -0.003942	      -0.225875
	 D(3,4,5,11)      =         3.126701	     179.146753
	 D(4,3,2,8)       =         3.095745	     177.373103
	 D(4,5,6,12)      =         3.095746	     177.373164
	 D(5,4,3,9)       =         3.126701	     179.146753
	 D(5,6,1,7)       =         3.137687	     179.776197
	 D(6,1,2,8)       =        -3.091438	    -177.126330
	 D(6,1,7,13)      =         0.636427	      36.464553
	 D(6,1,7,14)      =        -2.505166	    -143.535447
	 D(6,5,4,10)      =         3.137650	     179.774125
	 D(7,1,2,8)       =         0.050156	       2.873717
	 D(7,1,6,12)      =         0.050154	       2.873609
	 D(8,2,3,9)       =        -0.034952	      -2.002610
	 D(9,3,4,10)      =        -0.014892	      -0.853247
	 D(10,4,5,11)     =        -0.014892	      -0.853247
	 D(11,5,6,12)     =        -0.034950	      -2.002502
	 D(13,7,14,15)    =         0.109428	       6.269735
	 D(13,7,14,16)    =        -2.953749	    -169.237323
	 D(14,7,13,17)    =        -0.349065	     -19.999933
	 D(14,7,13,18)    =         2.714108	     155.506954

	Current energy   :      -381.4607156566

	Generating empirical Hessian (Schlegel '84) for each fragment.
	Taking RFO optimization step.
	Going to follow RFO solution 1.
	Using RFO vector 1.

	Determining step-restricting scale parameter for RS-RFO.
	Maximum step size allowed    0.50000

	 Iter      |step|        alpha        rfo_root  
	------------------------------------------------
	    0     0.53617       1.00000           1
	    1     0.50371       1.28246           1
	    2     0.50005       1.31840           1
	    3     0.50000       1.31886           1
	------------------------------------------------
	Norm of target step-size    0.50000
	Projected energy change by RFO approximation:        -0.0060287361

	Back-transformation to cartesian coordinates...
	Could not converge backtransformation.
	Using first guess instead.

	Back-transformation to cartesian coordinates to adjust frozen coordinates...
	Successfully converged to displaced geometry.

	--- Internal Coordinate Step in ANG or DEG, aJ/ANG or AJ/DEG ---
	 ---------------------------------------------------------------------------
	   Coordinate                Previous        Force       Change         New 
	   ----------                --------       ------       ------       ------
	    1 R(1,2)          =      1.407502    -0.005729    -0.000631     1.406872
	    2 R(1,6)          =      1.407502     0.003771     0.000752     1.408254
	    3 R(1,7)          =      1.466870     0.022423     0.003944     1.470814
	    4 R(2,3)          =      1.391302     0.004728     0.001189     1.392491
	    5 R(2,8)          =      1.086387    -0.000566     0.000052     1.086439
	    6 R(3,4)          =      1.398293    -0.007852    -0.000868     1.397425
	    7 R(3,9)          =      1.085143    -0.000104     0.000224     1.085368
	    8 R(4,5)          =      1.398293    -0.000793     0.000164     1.398457
	    9 R(4,10)         =      1.085649    -0.000402     0.000286     1.085935
	   10 R(5,6)          =      1.391302    -0.005744    -0.000402     1.390899
	   11 R(5,11)         =      1.085143     0.000084     0.000159     1.085302
	   12 R(6,12)         =      1.086387     0.001971     0.000748     1.087135
	   13 R(7,13)         =      1.330061     0.050707     0.006696     1.336757
	   14 R(7,14)         =      1.330061    -0.010062     0.001592     1.331654
	   15 R(13,17)        =      1.011575     0.014015     0.002052     1.013628
	   16 R(13,18)        =      1.013295    -0.021664     0.022696     1.035992
	   17 R(14,15)        =      1.013295     0.001529     0.000293     1.013588
	   18 R(14,16)        =      1.011575    -0.000250     0.006415     1.017990
	   19 B(1,2,3)        =    119.655334     0.000023     0.072817   119.728151
	   20 B(1,2,8)        =    120.515735    -0.000007    -0.030090   120.485645
	   21 B(1,6,5)        =    119.655336     0.000057     0.177474   119.832809
	   22 B(1,6,12)       =    120.515739     0.000087     0.414304   120.930043
	   23 B(1,7,13)       =    119.935135     0.000341     0.928949   120.864083
	   24 B(1,7,14)       =    119.935172    -0.000253    -0.832413   119.102759
	   25 B(2,1,6)        =    120.161836    -0.000075    -0.221009   119.940827
	   26 B(2,1,7)        =    119.919082    -0.000220    -0.631830   119.287251
	   27 B(2,3,4)        =    120.050699     0.000022     0.072326   120.123025
	   28 B(2,3,9)        =    119.732039    -0.000018    -0.054580   119.677459
	   29 B(3,2,8)        =    119.756716    -0.000017    -0.065555   119.691161
	   30 B(3,4,5)        =    120.423818    -0.000024    -0.097283   120.326535
	   31 B(3,4,10)       =    119.788091     0.000016     0.062886   119.850977
	   32 B(4,3,9)        =    120.214304    -0.000004    -0.016069   120.198235
	   33 B(4,5,6)        =    120.050698    -0.000003    -0.011321   120.039377
	   34 B(4,5,11)       =    120.214304    -0.000002    -0.017645   120.196658
	   35 B(5,4,10)       =    119.788091     0.000008     0.034397   119.822488
	   36 B(5,6,12)       =    119.756718    -0.000143    -0.585771   119.170946
	   37 B(6,1,7)        =    119.919082     0.000295     0.852427   120.771510
	   38 B(6,5,11)       =    119.732040     0.000006     0.030556   119.762595
	   39 B(7,13,17)      =    119.886310     0.000487     2.301954   122.188264
	   40 B(7,13,18)      =    122.891433    -0.000368    -1.877531   121.013903
	   41 B(7,14,15)      =    122.891403     0.000007     0.036147   122.927550
	   42 B(7,14,16)      =    119.886356     0.000003     0.266488   120.152844
	   43 B(13,7,14)      =    120.129694    -0.000088    -0.489312   119.640381
	   44 B(15,14,16)     =    117.078183    -0.000001    -0.167777   116.910406
	   45 B(17,13,18)     =    117.078187    -0.000084    -0.683128   116.395059
	   46 D(1,2,3,4)      =      0.446917     0.000006     0.618967     1.065883
	   47 D(1,2,3,9)      =   -178.928796     0.000004     0.405564  -178.523232
	   48 D(1,6,5,4)      =      0.446823     0.000001     0.078579     0.525402
	   49 D(1,6,5,11)     =   -178.928843    -0.000001    -0.120926  -179.049769
	   50 *D(1,7,13,17)   =    160.000067     0.000000     0.000000   160.000067
	   51 D(1,7,13,18)    =    -24.493046     0.000126    12.041778   -12.451268
	   52 D(1,7,14,15)    =   -173.730265     0.000002     0.565523  -173.164742
	   53 D(1,7,14,16)    =     10.762677    -0.000031    -2.789321     7.973356
	   54 D(2,1,6,5)      =     -0.223756     0.000003     0.347314     0.123558
	   55 D(2,1,6,12)     =   -177.126344     0.000003     0.233333  -176.893011
	   56 D(2,1,7,13)     =   -143.535494     0.000028     3.131642  -140.403852
	   57 D(2,1,7,14)     =     36.464506    -0.000035    -4.088113    32.376393
	   58 D(2,3,4,5)      =     -0.225922    -0.000002    -0.194194    -0.420116
	   59 D(2,3,4,10)     =    179.774078    -0.000002    -0.194379   179.579699
	   60 D(3,2,1,6)      =     -0.223897    -0.000006    -0.695550    -0.919447
	   61 D(3,2,1,7)      =    179.776150    -0.000008    -0.927334   178.848815
	   62 D(3,4,5,6)      =     -0.225875    -0.000001    -0.156807    -0.382682
	   63 D(3,4,5,11)     =    179.146753     0.000001     0.043875   179.190627
	   64 D(4,3,2,8)      =    177.373103     0.000002     0.165862   177.538965
	   65 D(4,5,6,12)     =    177.373164     0.000003     0.221383   177.594546
	   66 D(5,4,3,9)      =    179.146753     0.000000     0.020090   179.166843
	   67 D(5,6,1,7)      =    179.776197     0.000005     0.582595   180.358792
	   68 D(6,1,2,8)      =   -177.126330    -0.000002    -0.237711  -177.364041
	   69 D(6,1,7,13)     =     36.464553     0.000027     2.897882    39.362435
	   70 D(6,1,7,14)     =   -143.535447    -0.000036    -4.321873  -147.857320
	   71 D(6,5,4,10)     =    179.774125    -0.000001    -0.156623   179.617502
	   72 D(7,1,2,8)      =      2.873717    -0.000004    -0.469496     2.404221
	   73 D(7,1,6,12)     =      2.873609     0.000004     0.468614     3.342223
	   74 D(8,2,3,9)      =     -2.002610    -0.000000    -0.047541    -2.050150
	   75 D(9,3,4,10)     =     -0.853247     0.000000     0.019906    -0.833342
	   76 D(10,4,5,11)    =     -0.853247     0.000001     0.044059    -0.809188
	   77 D(11,5,6,12)    =     -2.002502     0.000001     0.021878    -1.980624
	   78 D(13,7,14,15)   =      6.269735    -0.000061    -6.564385    -0.294650
	   79 D(13,7,14,16)   =   -169.237323    -0.000094    -9.919229  -179.156552
	   80 D(14,7,13,17)   =    -19.999933     0.000063     7.258190   -12.741743
	   81 D(14,7,13,18)   =    155.506954     0.000189    19.299968   174.806921
	 ---------------------------------------------------------------------------
	Successfully symmetrized geometry.

  ==> Convergence Check <==

  Measures of convergence in internal coordinates in au.
  Criteria marked as inactive (o), active & met (*), and active & unmet ( ).
  --------------------------------------------------------------------------------------------- ~
   Step     Total Energy     Delta E     MAX Force     RMS Force      MAX Disp      RMS Disp    ~
  --------------------------------------------------------------------------------------------- ~
    Convergence Criteria    1.00e-06 *    3.00e-04 *             o    1.20e-03 *             o  ~
  --------------------------------------------------------------------------------------------- ~
      1    -381.46071566   -3.81e+02      1.08e-02      2.30e-03 o    3.37e-01      5.47e-02 o  ~
  ---------------------------------------------------------------------------------------------

	Writing optimization data to binary file.
	Structure for next step:
	Cartesian Geometry (in Angstrom)
	    C     0.0424735862  -0.0387598135  -0.1818361329
	    C     0.0681398482   1.1894600571   0.5038061320
	    C     0.0303117406   1.2041914610   1.8957049150
	    C    -0.0104144739   0.0031640394   2.6089171010
	    C    -0.0223399997  -1.2202499506   1.9315718318
	    C    -0.0016688907  -1.2464985055   0.5410738051
	    C     0.0570850148  -0.0422011928  -1.6525737370
	    H     0.0591623542   2.1272103019  -0.0447315603
	    H     0.0258639064   2.1527679090   2.4231569216
	    H    -0.0329162080   0.0196723688   3.6944935475
	    H    -0.0407402173  -2.1520002521   2.4877945176
	    H     0.0285424889  -2.2053134961   0.0295813916
	    N    -0.6905862071  -0.9083145161  -2.3437713629
	    N     0.7123458815   0.9221046452  -2.2960403799
	    H     0.6776399454   1.0347785993  -3.3027482404
	    H     1.2941744902   1.5780305653  -1.7787978001
	    H    -0.9348469923  -0.7553048800  -3.3155561134
	    H    -1.1447692675  -1.7134063405  -1.8759858363
			--------------------------
			 OPTKING Finished Execution 
			--------------------------

    Structure for next step:
    Molecular point group: c1
    Full point group: C1

    Geometry (in Angstrom), charge = 1, multiplicity = 1:

    C            0.042473586198    -0.038759813541    -0.181836132926
    C            0.068139848150     1.189460057065     0.503806132049
    C            0.030311740605     1.204191461038     1.895704914997
    C           -0.010414473852     0.003164039422     2.608917100972
    C           -0.022339999724    -1.220249950551     1.931571831841
    C           -0.001668890694    -1.246498505456     0.541073805103
    C            0.057085014835    -0.042201192824    -1.652573736967
    H            0.059162354186     2.127210301947    -0.044731560347
    H            0.025863906375     2.152767909008     2.423156921628
    H           -0.032916207984     0.019672368830     3.694493547471
    H           -0.040740217314    -2.152000252137     2.487794517581
    H            0.028542488885    -2.205313496108     0.029581391588
    N           -0.690586207067    -0.908314516109    -2.343771362859
    N            0.712345881539     0.922104645249    -2.296040379928
    H            0.677639945404     1.034778599319    -3.302748240413
    H            1.294174490244     1.578030565330    -1.778797800052
    H           -0.934846992257    -0.755304879995    -3.315556113389
    H           -1.144769267529    -1.713406340487    -1.875985836347

gradient() will perform analytic gradient computation.

*** tstart() called on computer06
*** at Tue Dec 12 14:41:08 2017

   => Loading Basis Set <=

    Name: 6-31G*
    Role: ORBITAL
    Keyword: BASIS
    atoms 1-7         entry C          line   102 file /shared/raimis/opt/miniconda/share/psi4/basis/6-31gs.gbs 
    atoms 8-12, 15-18 entry H          line    35 file /shared/raimis/opt/miniconda/share/psi4/basis/6-31gs.gbs 
    atoms 13-14       entry N          line   119 file /shared/raimis/opt/miniconda/share/psi4/basis/6-31gs.gbs 


         ---------------------------------------------------------
                                   SCF
            by Justin Turney, Rob Parrish, and Andy Simmonett
                              RKS Reference
                        1 Threads,   3000 MiB Core
         ---------------------------------------------------------

  ==> Geometry <==

    Molecular point group: c1
    Full point group: C1

    Geometry (in Angstrom), charge = 1, multiplicity = 1:

       Center              X                  Y                   Z               Mass       
    ------------   -----------------  -----------------  -----------------  -----------------
           C          0.042473586198    -0.038759813541    -0.181836132926    12.000000000000
           C          0.068139848150     1.189460057065     0.503806132049    12.000000000000
           C          0.030311740605     1.204191461038     1.895704914997    12.000000000000
           C         -0.010414473852     0.003164039422     2.608917100972    12.000000000000
           C         -0.022339999724    -1.220249950551     1.931571831841    12.000000000000
           C         -0.001668890694    -1.246498505456     0.541073805103    12.000000000000
           C          0.057085014835    -0.042201192824    -1.652573736967    12.000000000000
           H          0.059162354186     2.127210301947    -0.044731560347     1.007825032070
           H          0.025863906375     2.152767909008     2.423156921628     1.007825032070
           H         -0.032916207984     0.019672368830     3.694493547471     1.007825032070
           H         -0.040740217314    -2.152000252137     2.487794517581     1.007825032070
           H          0.028542488885    -2.205313496108     0.029581391588     1.007825032070
           N         -0.690586207067    -0.908314516109    -2.343771362859    14.003074004780
           N          0.712345881539     0.922104645249    -2.296040379928    14.003074004780
           H          0.677639945404     1.034778599319    -3.302748240413     1.007825032070
           H          1.294174490244     1.578030565330    -1.778797800052     1.007825032070
           H         -0.934846992257    -0.755304879995    -3.315556113389     1.007825032070
           H         -1.144769267529    -1.713406340487    -1.875985836347     1.007825032070

  Running in c1 symmetry.

  Rotational constants: A =      0.12164  B =      0.03947  C =      0.03116 [cm^-1]
  Rotational constants: A =   3646.71162  B =   1183.28007  C =    934.09639 [MHz]
  Nuclear repulsion =  416.340708202548512

  Charge       = 1
  Multiplicity = 1
  Electrons    = 64
  Nalpha       = 32
  Nbeta        = 32

  ==> Algorithm <==

  SCF Algorithm Type is DF.
  DIIS enabled.
  MOM disabled.
  Fractional occupation disabled.
  Guess Type is READ.
  Energy threshold   = 1.00e-08
  Density threshold  = 1.00e-08
  Integral threshold = 0.00e+00

  ==> Primary Basis <==

  Basis Set: 6-31G*
    Blend: 6-31G*
    Number of shells: 72
    Number of basis function: 153
    Number of Cartesian functions: 153
    Spherical Harmonics?: false
    Max angular momentum: 2

  ==> DFT Potential <==

   => B3LYP Composite Functional <= 

    B3LYP Hybrid-GGA Exchange-Correlation Functional (VWN1-RPA)

    P.J. Stephens et. al., J. Phys. Chem., 98, 11623-11627, 1994

    Points   =           5000
    Deriv    =              1
    GGA      =           TRUE
    Meta     =          FALSE

    X_LRC        =          FALSE
    X_Hybrid     =           TRUE
    X_Alpha      =   2.000000E-01
    X_Omega      =   0.000000E+00
    C_LRC        =          FALSE
    C_Hybrid     =          FALSE
    C_Alpha      =   0.000000E+00
    C_Omega      =   0.000000E+00

   => Exchange Functionals <=

    0.8000    B3_X
    0.2000      HF 

   => Correlation Functionals <=

    0.1900 VWN3RPA_C
    0.8100   LYP_C

   => Molecular Quadrature <=

    Radial Scheme    =       TREUTLER
    Pruning Scheme   =           FLAT
    Nuclear Scheme   =       TREUTLER

    BS radius alpha  =              1
    Pruning alpha    =              1
    Radial Points    =             75
    Spherical Points =            302
    Total Points     =         396881
    Total Blocks     =            365
    Max Points       =           4841
    Max Functions    =            152

   => -D3ZERO: Empirical Dispersion <=

    Grimme's -D3 (zero-damping) Dispersion Correction
    Grimme S.; Antony J.; Ehrlich S.; Krieg H. (2010), J. Chem. Phys., 132: 154104

        S6 =   1.000000E+00
        S8 =   1.703000E+00
       SR6 =   1.261000E+00
    ALPHA6 =   1.400000E+01

   => Loading Basis Set <=

    Name: (6-31G* AUX)
    Role: JKFIT
    Keyword: DF_BASIS_SCF
    atoms 1-7         entry C          line   120 file /shared/raimis/opt/miniconda/share/psi4/basis/cc-pvdz-jkfit.gbs 
    atoms 8-12, 15-18 entry H          line    50 file /shared/raimis/opt/miniconda/share/psi4/basis/cc-pvdz-jkfit.gbs 
    atoms 13-14       entry N          line   170 file /shared/raimis/opt/miniconda/share/psi4/basis/cc-pvdz-jkfit.gbs 

  Reading orbitals from file 180, no projection.

  ==> Pre-Iterations <==

   -------------------------------------------------------
    Irrep   Nso     Nmo     Nalpha   Nbeta   Ndocc  Nsocc
   -------------------------------------------------------
     A        153     153       0       0       0       0
   -------------------------------------------------------
    Total     153     153      32      32      32       0
   -------------------------------------------------------

  ==> Integral Setup <==

  ==> DFJK: Density-Fitted J/K Matrices <==

    J tasked:                  Yes
    K tasked:                  Yes
    wK tasked:                  No
    OpenMP threads:              1
    Integrals threads:           1
    Memory (MB):              2250
    Algorithm:                Core
    Integral Cache:           NONE
    Schwarz Cutoff:          1E-12
    Fitting Condition:       1E-12

   => Auxiliary Basis Set <=

  Basis Set: (6-31G* AUX)
    Blend: CC-PVDZ-JKFIT
    Number of shells: 297
    Number of basis function: 954
    Number of Cartesian functions: 954
    Spherical Harmonics?: false
    Max angular momentum: 3

  Minimum eigenvalue in the overlap matrix is 4.8655674212E-04.
  Using Symmetric Orthogonalization.

  SCF Guess: Orbitals guess was supplied from a previous computation.

  ==> Iterations <==

                           Total Energy        Delta E     RMS |[F,P]|

   @DF-RKS iter   0:  -381.42899982169462   -3.81429e+02   9.52161e-04 
   @DF-RKS iter   1:  -381.46479025332036   -3.57904e-02   1.33714e-04 
   @DF-RKS iter   2:  -381.46470246326402    8.77901e-05   1.67317e-04 DIIS
   @DF-RKS iter   3:  -381.46505161344442   -3.49150e-04   5.06551e-05 DIIS
   @DF-RKS iter   4:  -381.46508241062111   -3.07972e-05   1.59756e-05 DIIS
   @DF-RKS iter   5:  -381.46508516032702   -2.74971e-06   4.52300e-06 DIIS
   @DF-RKS iter   6:  -381.46508537564080   -2.15314e-07   1.53204e-06 DIIS
   @DF-RKS iter   7:  -381.46508540111745   -2.54767e-08   4.24579e-07 DIIS
   @DF-RKS iter   8:  -381.46508540293161   -1.81416e-09   1.47835e-07 DIIS
   @DF-RKS iter   9:  -381.46508540318183   -2.50225e-10   2.89528e-08 DIIS
   @DF-RKS iter  10:  -381.46508540319047   -8.64020e-12   1.16082e-08 DIIS
   @DF-RKS iter  11:  -381.46508540319235   -1.87583e-12   4.01920e-09 DIIS

  ==> Post-Iterations <==

    Orbital Energies (a.u.)
    -----------------------

    Doubly Occupied:                                                      

       1A    -14.569734     2A    -14.568827     3A    -10.499989  
       4A    -10.375059     5A    -10.357069     6A    -10.356537  
       7A    -10.342135     8A    -10.340624     9A    -10.340426  
      10A     -1.181937    11A     -1.088927    12A     -1.014307  
      13A     -0.926413    14A     -0.902421    15A     -0.845000  
      16A     -0.783549    17A     -0.773898    18A     -0.739784  
      19A     -0.733386    20A     -0.683473    21A     -0.669250  
      22A     -0.628194    23A     -0.615627    24A     -0.590405  
      25A     -0.578121    26A     -0.574390    27A     -0.516866  
      28A     -0.506683    29A     -0.498529    30A     -0.470497  
      31A     -0.409949    32A     -0.405585  

    Virtual:                                                              

      33A     -0.217737    34A     -0.157610    35A     -0.134769  
      36A     -0.111725    37A     -0.073374    38A     -0.064090  
      39A     -0.038165    40A     -0.037727    41A      0.007068  
      42A      0.021310    43A      0.023712    44A      0.060569  
      45A      0.062542    46A      0.081911    47A      0.122377  
      48A      0.146846    49A      0.157048    50A      0.163662  
      51A      0.203490    52A      0.239496    53A      0.298983  
      54A      0.349588    55A      0.353145    56A      0.379446  
      57A      0.388146    58A      0.397617    59A      0.420448  
      60A      0.421903    61A      0.441703    62A      0.451169  
      63A      0.453930    64A      0.469082    65A      0.471409  
      66A      0.474662    67A      0.486050    68A      0.500938  
      69A      0.516803    70A      0.541281    71A      0.544193  
      72A      0.588687    73A      0.606945    74A      0.651668  
      75A      0.655762    76A      0.676786    77A      0.689211  
      78A      0.704176    79A      0.711745    80A      0.720198  
      81A      0.753010    82A      0.774738    83A      0.775448  
      84A      0.801829    85A      0.815837    86A      0.842417  
      87A      0.847634    88A      0.934055    89A      0.961900  
      90A      0.991520    91A      1.000728    92A      1.022368  
      93A      1.041791    94A      1.071298    95A      1.140576  
      96A      1.171831    97A      1.241583    98A      1.269543  
      99A      1.279372   100A      1.309315   101A      1.314821  
     102A      1.343287   103A      1.352087   104A      1.362614  
     105A      1.422047   106A      1.454002   107A      1.509397  
     108A      1.593277   109A      1.617266   110A      1.652763  
     111A      1.679789   112A      1.736283   113A      1.751011  
     114A      1.795623   115A      1.825488   116A      1.840775  
     117A      1.894183   118A      1.915125   119A      1.952141  
     120A      1.978002   121A      1.994955   122A      2.019919  
     123A      2.022020   124A      2.075386   125A      2.104033  
     126A      2.127189   127A      2.151063   128A      2.198505  
     129A      2.214753   130A      2.272440   131A      2.325686  
     132A      2.369103   133A      2.443879   134A      2.452113  
     135A      2.488091   136A      2.518709   137A      2.544292  
     138A      2.588728   139A      2.606224   140A      2.627542  
     141A      2.735649   142A      2.875520   143A      2.980711  
     144A      3.257420   145A      3.628319   146A      3.654349  
     147A      3.913082   148A      3.948675   149A      3.962736  
     150A      4.053467   151A      4.172959   152A      4.255350  
     153A      4.544538  

    Final Occupation by Irrep:
              A 
    DOCC [    32 ]

  Energy converged.

  @DF-RKS Final Energy:  -381.46508540319235

   => Energetics <=

    Nuclear Repulsion Energy =            416.3407082025485124
    One-Electron Energy =               -1327.8998669575817075
    Two-Electron Energy =                 574.4956469756725710
    DFT Exchange-Correlation Energy =     -44.3897457738318124
    Empirical Dispersion Energy =          -0.0118278500000000
    PCM Polarization Energy =               0.0000000000000000
    EFP Energy =                            0.0000000000000000
    Total Energy =                       -381.4650854031924041



Properties will be evaluated at   0.000000,   0.000000,   0.000000 Bohr

Properties computed using the SCF density matrix

  Nuclear Dipole Moment: (a.u.)
     X:     2.0144      Y:    -1.3651      Z:    -0.5319

  Electronic Dipole Moment: (a.u.)
     X:    -2.0709      Y:     1.4179      Z:    -1.7348

  Dipole Moment: (a.u.)
     X:    -0.0565      Y:     0.0527      Z:    -2.2667     Total:     2.2680

  Dipole Moment: (Debye)
     X:    -0.1437      Y:     0.1340      Z:    -5.7614     Total:     5.7647


*** tstop() called on computer06 at Tue Dec 12 14:42:02 2017
Module time:
	user time   =      53.61 seconds =       0.89 minutes
	system time =       0.41 seconds =       0.01 minutes
	total time  =         54 seconds =       0.90 minutes
Total time:
	user time   =     135.05 seconds =       2.25 minutes
	system time =       1.33 seconds =       0.02 minutes
	total time  =        137 seconds =       2.28 minutes

*** tstart() called on computer06
*** at Tue Dec 12 14:42:02 2017


         ------------------------------------------------------------
                                   SCF GRAD                          
                          Rob Parrish, Justin Turney,                
                       Andy Simmonett, and Alex Sokolov              
         ------------------------------------------------------------

  ==> Geometry <==

    Molecular point group: c1
    Full point group: C1

    Geometry (in Angstrom), charge = 1, multiplicity = 1:

       Center              X                  Y                   Z               Mass       
    ------------   -----------------  -----------------  -----------------  -----------------
           C          0.042473586198    -0.038759813541    -0.181836132926    12.000000000000
           C          0.068139848150     1.189460057065     0.503806132049    12.000000000000
           C          0.030311740605     1.204191461038     1.895704914997    12.000000000000
           C         -0.010414473852     0.003164039422     2.608917100972    12.000000000000
           C         -0.022339999724    -1.220249950551     1.931571831841    12.000000000000
           C         -0.001668890694    -1.246498505456     0.541073805103    12.000000000000
           C          0.057085014835    -0.042201192824    -1.652573736967    12.000000000000
           H          0.059162354186     2.127210301947    -0.044731560347     1.007825032070
           H          0.025863906375     2.152767909008     2.423156921628     1.007825032070
           H         -0.032916207984     0.019672368830     3.694493547471     1.007825032070
           H         -0.040740217314    -2.152000252137     2.487794517581     1.007825032070
           H          0.028542488885    -2.205313496108     0.029581391588     1.007825032070
           N         -0.690586207067    -0.908314516109    -2.343771362859    14.003074004780
           N          0.712345881539     0.922104645249    -2.296040379928    14.003074004780
           H          0.677639945404     1.034778599319    -3.302748240413     1.007825032070
           H          1.294174490244     1.578030565330    -1.778797800052     1.007825032070
           H         -0.934846992257    -0.755304879995    -3.315556113389     1.007825032070
           H         -1.144769267529    -1.713406340487    -1.875985836347     1.007825032070

  Nuclear repulsion =  416.340708202548512

  ==> Basis Set <==

  Basis Set: 6-31G*
    Blend: 6-31G*
    Number of shells: 72
    Number of basis function: 153
    Number of Cartesian functions: 153
    Spherical Harmonics?: false
    Max angular momentum: 2

  ==> DFJKGrad: Density-Fitted SCF Gradients <==

    Gradient:                    1
    J tasked:                  Yes
    K tasked:                  Yes
    wK tasked:                  No
    OpenMP threads:              1
    Integrals threads:           1
    Memory (MB):              2250
    Schwarz Cutoff:          0E+00
    Fitting Condition:       1E-12

   => Auxiliary Basis Set <=

  Basis Set: (6-31G* AUX)
    Blend: CC-PVDZ-JKFIT
    Number of shells: 297
    Number of basis function: 954
    Number of Cartesian functions: 954
    Spherical Harmonics?: false
    Max angular momentum: 3

  ==> DFT Potential <==

   => B3LYP Composite Functional <= 

    B3LYP Hybrid-GGA Exchange-Correlation Functional (VWN1-RPA)

    P.J. Stephens et. al., J. Phys. Chem., 98, 11623-11627, 1994

    Points   =           5000
    Deriv    =              1
    GGA      =           TRUE
    Meta     =          FALSE

    X_LRC        =          FALSE
    X_Hybrid     =           TRUE
    X_Alpha      =   2.000000E-01
    X_Omega      =   0.000000E+00
    C_LRC        =          FALSE
    C_Hybrid     =          FALSE
    C_Alpha      =   0.000000E+00
    C_Omega      =   0.000000E+00

   => Exchange Functionals <=

    0.8000    B3_X
    0.2000      HF 

   => Correlation Functionals <=

    0.1900 VWN3RPA_C
    0.8100   LYP_C

   => Molecular Quadrature <=

    Radial Scheme    =       TREUTLER
    Pruning Scheme   =           FLAT
    Nuclear Scheme   =       TREUTLER

    BS radius alpha  =              1
    Pruning alpha    =              1
    Radial Points    =             75
    Spherical Points =            302
    Total Points     =         396881
    Total Blocks     =            365
    Max Points       =           4841
    Max Functions    =            152


  -Total Gradient:
     Atom            X                  Y                   Z
    ------   -----------------  -----------------  -----------------
       1       -0.006465963643     0.007069989367    -0.001160432791
       2        0.000306205445     0.000205750256    -0.000303330787
       3       -0.000095642372    -0.000002070018     0.000249712541
       4       -0.000034315931     0.000035851015    -0.000139802404
       5        0.000261271527    -0.000349079047    -0.000211432536
       6        0.000058931786    -0.000469833234     0.001093235846
       7        0.011495413593    -0.007628410513     0.002919710299
       8        0.000388027146    -0.000251441908    -0.001038249251
       9       -0.000007447461     0.000059634823     0.000197422794
      10        0.000012088452    -0.000035053882     0.000252223533
      11       -0.000038127172    -0.000068619593     0.000148564957
      12       -0.000029468111    -0.000270508398     0.000502096193
      13        0.003505258955     0.013909902822    -0.011125855448
      14       -0.000939171516    -0.001674047903    -0.002391849360
      15       -0.000507089006     0.000445669501    -0.000172905204
      16        0.002810990469     0.004481398328     0.003070181692
      17       -0.005314574238     0.003948402270     0.001369063152
      18       -0.005398015158    -0.019410919152     0.006732986694


*** tstop() called on computer06 at Tue Dec 12 14:42:18 2017
Module time:
	user time   =      15.18 seconds =       0.25 minutes
	system time =       0.29 seconds =       0.00 minutes
	total time  =         16 seconds =       0.27 minutes
Total time:
	user time   =     150.23 seconds =       2.50 minutes
	system time =       1.62 seconds =       0.03 minutes
	total time  =        153 seconds =       2.55 minutes

			-----------------------------------------
			 OPTKING 2.0: for geometry optimizations 
			  - R.A. King,  Bethel University        
			-----------------------------------------
	At level 1: Red. Int., RFO, no backsteps, dynamic trust

	Previous internal coordinate definitions found.
	---Fragment 1 Geometry and Gradient---
	 C           0.0802634458       -0.0732454326       -0.3436204923
	 C           0.1287656517        2.2477537539        0.9520556136
	 C           0.0572808884        2.2755920729        3.5823631181
	 C          -0.0196805034        0.0059791680        4.9301388242
	 C          -0.0422164813       -2.3059382202        3.6501417682
	 C          -0.0031537464       -2.3555408004        1.0224813093
	 C           0.1078750443       -0.0797486969       -3.1229117773
	 H           0.1118006468        4.0198448977       -0.0845303986
	 H           0.0488756998        4.0681417757        4.5791029589
	 H          -0.0622026184        0.0371753895        6.9815810044
	 H          -0.0769878533       -4.0666911144        4.7012503131
	 H           0.0539374871       -4.1674385448        0.0559007287
	 N          -1.3050188025       -1.7164656780       -4.4290859939
	 N           1.3461386280        1.7425252454       -4.3388875081
	 H           1.2805539135        1.9554481609       -6.2412896603
	 H           2.4456353547        2.9820455978       -3.3614406879
	 H          -1.7666047915       -1.4273193700       -6.2654930325
	 H          -2.1633004010       -3.2378687379       -3.5450994599
	            -0.0064659636        0.0070699894       -0.0011604328
	             0.0003062054        0.0002057503       -0.0003033308
	            -0.0000956424       -0.0000020700        0.0002497125
	            -0.0000343159        0.0000358510       -0.0001398024
	             0.0002612715       -0.0003490790       -0.0002114325
	             0.0000589318       -0.0004698332        0.0010932358
	             0.0114954136       -0.0076284105        0.0029197103
	             0.0003880271       -0.0002514419       -0.0010382493
	            -0.0000074475        0.0000596348        0.0001974228
	             0.0000120885       -0.0000350539        0.0002522235
	            -0.0000381272       -0.0000686196        0.0001485650
	            -0.0000294681       -0.0002705084        0.0005020962
	             0.0035052590        0.0139099028       -0.0111258554
	            -0.0009391715       -0.0016740479       -0.0023918494
	            -0.0005070890        0.0004456695       -0.0001729052
	             0.0028109905        0.0044813983        0.0030701817
	            -0.0053145742        0.0039484023        0.0013690632
	            -0.0053980152       -0.0194109192        0.0067329867

	---Fragment 1 Intrafragment Coordinates---
	 - Coordinate -           - BOHR/RAD -       - ANG/DEG -
	 R(1,2)           =         2.658602	       1.406872
	 R(1,6)           =         2.661215	       1.408254
	 R(1,7)           =         2.779436	       1.470814
	 R(2,3)           =         2.631426	       1.392491
	 R(2,8)           =         2.053072	       1.086439
	 R(3,4)           =         2.640751	       1.397425
	 R(3,9)           =         2.051047	       1.085368
	 R(4,5)           =         2.642700	       1.398457
	 R(4,10)          =         2.052120	       1.085935
	 R(5,6)           =         2.628419	       1.390899
	 R(5,11)          =         2.050924	       1.085302
	 R(6,12)          =         2.054388	       1.087135
	 R(7,13)          =         2.526104	       1.336757
	 R(7,14)          =         2.516461	       1.331654
	 R(13,17)         =         1.915479	       1.013628
	 R(13,18)         =         1.957740	       1.035992
	 R(14,15)         =         1.915404	       1.013588
	 R(14,16)         =         1.923722	       1.017990
	 B(1,2,3)         =         2.089650	     119.728151
	 B(1,2,8)         =         2.102871	     120.485645
	 B(1,6,5)         =         2.091477	     119.832809
	 B(1,6,12)        =         2.110627	     120.930043
	 B(1,7,13)        =         2.109476	     120.864083
	 B(1,7,14)        =         2.078735	     119.102759
	 B(2,1,6)         =         2.093362	     119.940827
	 B(2,1,7)         =         2.081955	     119.287251
	 B(2,3,4)         =         2.096542	     120.123025
	 B(2,3,9)         =         2.088766	     119.677459
	 B(3,2,8)         =         2.089005	     119.691161
	 B(3,4,5)         =         2.100094	     120.326535
	 B(3,4,10)        =         2.091794	     119.850977
	 B(4,3,9)         =         2.097855	     120.198235
	 B(4,5,6)         =         2.095082	     120.039377
	 B(4,5,11)        =         2.097827	     120.196658
	 B(5,4,10)        =         2.091297	     119.822488
	 B(5,6,12)        =         2.079925	     119.170946
	 B(6,1,7)         =         2.107860	     120.771510
	 B(6,5,11)        =         2.090252	     119.762595
	 B(7,13,17)       =         2.132588	     122.188264
	 B(7,13,18)       =         2.112091	     121.013903
	 B(7,14,15)       =         2.145490	     122.927550
	 B(7,14,16)       =         2.097063	     120.152844
	 B(13,7,14)       =         2.088119	     119.640381
	 B(15,14,16)      =         2.040472	     116.910406
	 B(17,13,18)      =         2.031477	     116.395059
	 D(1,2,3,4)       =         0.018603	       1.065883
	 D(1,2,3,9)       =        -3.115818	    -178.523232
	 D(1,6,5,4)       =         0.009170	       0.525402
	 D(1,6,5,11)      =        -3.125008	    -179.049769
	*D(1,7,13,17)     =         2.792528	     160.000067
	 D(1,7,13,18)     =        -0.217316	     -12.451268
	 D(1,7,14,15)     =        -3.022295	    -173.164742
	 D(1,7,14,16)     =         0.139161	       7.973356
	 D(2,1,6,5)       =         0.002156	       0.123558
	 D(2,1,6,12)      =        -3.087365	    -176.893011
	 D(2,1,7,13)      =        -2.450509	    -140.403852
	 D(2,1,7,14)      =         0.565075	      32.376393
	 D(2,3,4,5)       =        -0.007332	      -0.420116
	 D(2,3,4,10)      =         3.134257	     179.579699
	 D(3,2,1,6)       =        -0.016047	      -0.919447
	 D(3,2,1,7)       =         3.121501	     178.848815
	 D(3,4,5,6)       =        -0.006679	      -0.382682
	 D(3,4,5,11)      =         3.127466	     179.190627
	 D(4,3,2,8)       =         3.098639	     177.538965
	 D(4,5,6,12)      =         3.099610	     177.594546
	 D(5,4,3,9)       =         3.127051	     179.166843
	 D(5,6,1,7)       =        -3.135331	    -179.641208
	 D(6,1,2,8)       =        -3.095586	    -177.364041
	 D(6,1,7,13)      =         0.687004	      39.362435
	 D(6,1,7,14)      =        -2.580597	    -147.857320
	 D(6,5,4,10)      =         3.134917	     179.617502
	 D(7,1,2,8)       =         0.041962	       2.404221
	 D(7,1,6,12)      =         0.058333	       3.342223
	 D(8,2,3,9)       =        -0.035782	      -2.050150
	 D(9,3,4,10)      =        -0.014545	      -0.833342
	 D(10,4,5,11)     =        -0.014123	      -0.809188
	 D(11,5,6,12)     =        -0.034568	      -1.980624
	 D(13,7,14,15)    =        -0.005143	      -0.294650
	 D(13,7,14,16)    =        -3.126872	    -179.156552
	 D(14,7,13,17)    =        -0.222385	     -12.741743
	 D(14,7,13,18)    =         3.050956	     174.806921

	Current energy   :      -381.4650854032

	Energy change for the previous step:
		Projected    :        -0.0060287361
		Actual       :        -0.0043697466

	Performing BFGS update.
	Previous computed or guess Hessian on step 1.
	Steps to be used in Hessian update: 1
	Taking RFO optimization step.
	Going to follow RFO solution 1.
	Using RFO vector 1.
	Norm of target step-size    0.37490
	Projected energy change by RFO approximation:        -0.0056227973

	Back-transformation to cartesian coordinates...
	Could not converge backtransformation.
	Using first guess instead.

	Back-transformation to cartesian coordinates to adjust frozen coordinates...
	Successfully converged to displaced geometry.

	--- Internal Coordinate Step in ANG or DEG, aJ/ANG or AJ/DEG ---
	 ---------------------------------------------------------------------------
	   Coordinate                Previous        Force       Change         New 
	   ----------                --------       ------       ------       ------
	    1 R(1,2)          =      1.406872     0.004880     0.000985     1.407857
	    2 R(1,6)          =      1.408254    -0.013121    -0.001519     1.406735
	    3 R(1,7)          =      1.470814     0.002758     0.001531     1.472345
	    4 R(2,3)          =      1.392491    -0.004206    -0.000156     1.392334
	    5 R(2,8)          =      1.086439    -0.002503     0.000063     1.086502
	    6 R(3,4)          =      1.397425    -0.001965    -0.000219     1.397206
	    7 R(3,9)          =      1.085368    -0.001222     0.000189     1.085556
	    8 R(4,5)          =      1.398457    -0.001943     0.000096     1.398552
	    9 R(4,10)         =      1.085935    -0.002075    -0.000237     1.085698
	   10 R(5,6)          =      1.390899     0.000145    -0.000021     1.390878
	   11 R(5,11)         =      1.085302    -0.001120     0.000018     1.085321
	   12 R(6,12)         =      1.087135    -0.000010     0.000441     1.087576
	   13 R(7,13)         =      1.336757    -0.054383    -0.003723     1.333034
	   14 R(7,14)         =      1.331654    -0.022917    -0.001251     1.330403
	   15 R(13,17)        =      1.013628    -0.004646     0.000376     1.014004
	   16 R(13,18)        =      1.035992    -0.168826     0.006484     1.042476
	   17 R(14,15)        =      1.013588    -0.001964     0.001299     1.014887
	   18 R(14,16)        =      1.017990    -0.049876    -0.005098     1.012892
	   19 B(1,2,3)        =    119.728151    -0.000013    -0.024659   119.703492
	   20 B(1,2,8)        =    120.485645     0.000086     0.392537   120.878183
	   21 B(1,6,5)        =    119.832809     0.000012     0.069174   119.901983
	   22 B(1,6,12)       =    120.930043    -0.000051    -0.107958   120.822085
	   23 B(1,7,13)       =    120.864083    -0.000256    -0.393203   120.470881
	   24 B(1,7,14)       =    119.102759     0.000342     0.935817   120.038576
	   25 B(2,1,6)        =    119.940827     0.000005    -0.034077   119.906750
	   26 B(2,1,7)        =    119.287251     0.000232     0.507058   119.794309
	   27 B(2,3,4)        =    120.123025     0.000007     0.044950   120.167975
	   28 B(2,3,9)        =    119.677459    -0.000015    -0.087529   119.589930
	   29 B(3,2,8)        =    119.691161    -0.000074    -0.392636   119.298526
	   30 B(3,4,5)        =    120.326535    -0.000012    -0.047590   120.278945
	   31 B(3,4,10)       =    119.850977     0.000003     0.007616   119.858593
	   32 B(4,3,9)        =    120.198235     0.000008     0.041122   120.239357
	   33 B(4,5,6)        =    120.039377     0.000000    -0.005047   120.034330
	   34 B(4,5,11)       =    120.196658     0.000007     0.038843   120.235501
	   35 B(5,4,10)       =    119.822488     0.000009     0.039638   119.862126
	   36 B(5,6,12)       =    119.170946     0.000039     0.040978   119.211925
	   37 B(6,1,7)        =    120.771510    -0.000237    -0.484104   120.287405
	   38 B(6,5,11)       =    119.762595    -0.000007    -0.034191   119.728405
	   39 B(7,13,17)      =    122.188264     0.000143     0.763464   122.951728
	   40 B(7,13,18)      =    121.013903    -0.000230    -2.998480   118.015423
	   41 B(7,14,15)      =    122.927550     0.000002     0.040862   122.968412
	   42 B(7,14,16)      =    120.152844    -0.000011     0.006945   120.159789
	   43 B(13,7,14)      =    119.640381    -0.000070    -0.246828   119.393553
	   44 B(15,14,16)     =    116.910406     0.000007    -0.114701   116.795705
	   45 B(17,13,18)     =    116.395059     0.000041    -1.103695   115.291363
	   46 D(1,2,3,4)      =      1.065883    -0.000002    -0.150311     0.915572
	   47 D(1,2,3,9)      =   -178.523232    -0.000000     0.039269  -178.483963
	   48 D(1,6,5,4)      =      0.525402    -0.000000     0.006784     0.532185
	   49 D(1,6,5,11)     =   -179.049769     0.000001     0.063945  -178.985824
	   50 *D(1,7,13,17)   =    160.000067     0.000000    -0.000000   160.000067
	   51 D(1,7,13,18)    =    -12.451268     0.000097    15.292328     2.841059
	   52 D(1,7,14,15)    =   -173.164742    -0.000023    -3.680853  -176.845595
	   53 D(1,7,14,16)    =      7.973356    -0.000001    -1.543401     6.429955
	   54 D(2,1,6,5)      =      0.123558    -0.000002    -0.280321    -0.156763
	   55 D(2,1,6,12)     =   -176.893011    -0.000002    -0.331402  -177.224413
	   56 D(2,1,7,13)     =   -140.403852    -0.000007     0.164642  -140.239209
	   57 D(2,1,7,14)     =     32.376393     0.000025     3.782104    36.158498
	   58 D(2,3,4,5)      =     -0.420116    -0.000000    -0.124015    -0.544131
	   59 D(2,3,4,10)     =    179.579699     0.000001     0.087301   179.667000
	   60 D(3,2,1,6)      =     -0.919447     0.000003     0.352192    -0.567255
	   61 D(3,2,1,7)      =    178.848815    -0.000003    -0.647848   178.200967
	   62 D(3,4,5,6)      =     -0.382682     0.000001     0.196442    -0.186240
	   63 D(3,4,5,11)     =    179.190627     0.000001     0.138674   179.329302
	   64 D(4,3,2,8)      =    177.538965    -0.000004    -0.566831   176.972134
	   65 D(4,5,6,12)     =    177.594546    -0.000000     0.052559   177.647105
	   66 D(5,4,3,9)      =    179.166843    -0.000002    -0.315367   178.851475
	   67 D(5,6,1,7)      =   -179.641208     0.000004     0.722369  -178.918839
	   68 D(6,1,2,8)      =   -177.364041     0.000006     0.803834  -176.560208
	   69 D(6,1,7,13)     =     39.362435    -0.000012    -0.838175    38.524260
	   70 D(6,1,7,14)     =   -147.857320     0.000019     2.779287  -145.078033
	   71 D(6,5,4,10)     =    179.617502     0.000000    -0.014881   179.602621
	   72 D(7,1,2,8)      =      2.404221     0.000000    -0.196207     2.208014
	   73 D(7,1,6,12)     =      3.342223     0.000003     0.671289     4.013512
	   74 D(8,2,3,9)      =     -2.050150    -0.000002    -0.377252    -2.427402
	   75 D(9,3,4,10)     =     -0.833342    -0.000001    -0.104052    -0.937393
	   76 D(10,4,5,11)    =     -0.809188    -0.000001    -0.072649    -0.881837
	   77 D(11,5,6,12)    =     -1.980624     0.000001     0.109720    -1.870904
	   78 D(13,7,14,15)   =     -0.294650     0.000005    -0.114397    -0.409047
	   79 D(13,7,14,16)   =   -179.156552     0.000027     2.023055  -177.133497
	   80 D(14,7,13,17)   =    -12.741743    -0.000038    -3.678999   -16.420743
	   81 D(14,7,13,18)   =    174.806921     0.000059    11.613328   186.420250
	 ---------------------------------------------------------------------------
	Successfully symmetrized geometry.

  ==> Convergence Check <==

  Measures of convergence in internal coordinates in au.
  Criteria marked as inactive (o), active & met (*), and active & unmet ( ).
  ---------------------------------------------------------------------------------------------
   Step     Total Energy     Delta E     MAX Force     RMS Force      MAX Disp      RMS Disp   
  ---------------------------------------------------------------------------------------------
    Convergence Criteria    1.00e-06 *    3.00e-04 *             o    1.20e-03 *             o
  ---------------------------------------------------------------------------------------------
      2    -381.46508540   -4.37e-03      2.05e-02      2.80e-03 o    2.67e-01      4.08e-02 o  ~
  ---------------------------------------------------------------------------------------------

	Writing optimization data to binary file.
	Structure for next step:
	Cartesian Geometry (in Angstrom)
	    C     0.0533569453  -0.0256547193  -0.1831653521
	    C     0.0458761486   1.1975721504   0.5137721470
	    C     0.0023270128   1.1984590922   1.9054247983
	    C    -0.0145055808  -0.0090452850   2.6081590884
	    C     0.0007700880  -1.2260943605   1.9193145943
	    C     0.0289377014  -1.2386853274   0.5287787792
	    C     0.0592701554  -0.0287681540  -1.6554949188
	    H     0.0084641328   2.1432070863  -0.0199523547
	    H    -0.0283348092   2.1426776030   2.4401618008
	    H    -0.0430180924  -0.0024759374   3.6934626470
	    H    -0.0013468307  -2.1636180653   2.4660920199
	    H     0.0795112739  -2.1918668806   0.0075212512
	    N    -0.6694601634  -0.9162076055  -2.3325338388
	    N     0.7379148102   0.9022989376  -2.3207220173
	    H     0.7348722243   0.9701793076  -3.3333316884
	    H     1.3295703858   1.5551819047  -1.8210843289
	    H    -0.9344976182  -0.7868997982  -3.3027085150
	    H    -1.2722507838  -1.5709289489  -1.7896351122
			--------------------------
			 OPTKING Finished Execution 
			--------------------------

    Structure for next step:
    Molecular point group: c1
    Full point group: C1

    Geometry (in Angstrom), charge = 1, multiplicity = 1:

    C            0.053356945344    -0.025654719298    -0.183165352106
    C            0.045876148642     1.197572150353     0.513772147007
    C            0.002327012759     1.198459092219     1.905424798342
    C           -0.014505580819    -0.009045284967     2.608159088357
    C            0.000770087994    -1.226094360452     1.919314594320
    C            0.028937701406    -1.238685327362     0.528778779170
    C            0.059270155428    -0.028768153968    -1.655494918783
    H            0.008464132751     2.143207086325    -0.019952354664
    H           -0.028334809191     2.142677603022     2.440161800791
    H           -0.043018092428    -0.002475937388     3.693462647044
    H           -0.001346830749    -2.163618065251     2.466092019879
    H            0.079511273926    -2.191866880572     0.007521251240
    N           -0.669460163398    -0.916207605474    -2.332533838781
    N            0.737914810165     0.902298937649    -2.320722017324
    H            0.734872224345     0.970179307566    -3.333331688420
    H            1.329570385800     1.555181904742    -1.821084328872
    H           -0.934497618202    -0.786899798225    -3.302708514979
    H           -1.272250783773    -1.570928948919    -1.789635112222

gradient() will perform analytic gradient computation.

*** tstart() called on computer06
*** at Tue Dec 12 14:42:18 2017

   => Loading Basis Set <=

    Name: 6-31G*
    Role: ORBITAL
    Keyword: BASIS
    atoms 1-7         entry C          line   102 file /shared/raimis/opt/miniconda/share/psi4/basis/6-31gs.gbs 
    atoms 8-12, 15-18 entry H          line    35 file /shared/raimis/opt/miniconda/share/psi4/basis/6-31gs.gbs 
    atoms 13-14       entry N          line   119 file /shared/raimis/opt/miniconda/share/psi4/basis/6-31gs.gbs 


         ---------------------------------------------------------
                                   SCF
            by Justin Turney, Rob Parrish, and Andy Simmonett
                              RKS Reference
                        1 Threads,   3000 MiB Core
         ---------------------------------------------------------

  ==> Geometry <==

    Molecular point group: c1
    Full point group: C1

    Geometry (in Angstrom), charge = 1, multiplicity = 1:

       Center              X                  Y                   Z               Mass       
    ------------   -----------------  -----------------  -----------------  -----------------
           C          0.053356945344    -0.025654719298    -0.183165352106    12.000000000000
[...]
	             0.0000172973       -0.0000151573       -0.0000075556
	             0.0034931215       -0.0031870627        0.0008318650
	            -0.0000015476       -0.0000074309       -0.0000043582
	            -0.0000028536       -0.0000022430        0.0000001058
	             0.0000002421        0.0000009798       -0.0000008624
	            -0.0000032886        0.0000004387        0.0000001367
	            -0.0000045157        0.0000044241       -0.0000037117
	             0.0062162485       -0.0026152199       -0.0028204773
	             0.0000162477       -0.0000253181        0.0000012411
	            -0.0000083437        0.0000075668        0.0000013966
	            -0.0000101469        0.0000105909        0.0000041040
	            -0.0059412359        0.0029532139        0.0019940515
	            -0.0000018551        0.0000284480        0.0000020612

	---Fragment 1 Intrafragment Coordinates---
	 - Coordinate -           - BOHR/RAD -       - ANG/DEG -
	 R(1,2)           =         2.659162	       1.407168
	 R(1,6)           =         2.659913	       1.407565
	 R(1,7)           =         2.774579	       1.468244
	 R(2,3)           =         2.630011	       1.391742
	 R(2,8)           =         2.052804	       1.086297
	 R(3,4)           =         2.641513	       1.397829
	 R(3,9)           =         2.050652	       1.085158
	 R(4,5)           =         2.642456	       1.398327
	 R(4,10)          =         2.051506	       1.085610
	 R(5,6)           =         2.628936	       1.391173
	 R(5,11)          =         2.050619	       1.085141
	 R(6,12)          =         2.053429	       1.086628
	 R(7,13)          =         2.524723	       1.336026
	 R(7,14)          =         2.509669	       1.328060
	 R(13,17)         =         1.916840	       1.014348
	 R(13,18)         =         1.914097	       1.012896
	 R(14,15)         =         1.915277	       1.013521
	 R(14,16)         =         1.911938	       1.011754
	 B(1,2,3)         =         2.087640	     119.612964
	 B(1,2,8)         =         2.106425	     120.689275
	 B(1,6,5)         =         2.088829	     119.681090
	 B(1,6,12)        =         2.104224	     120.563170
	 B(1,7,13)        =         2.093652	     119.957420
	 B(1,7,14)        =         2.093697	     119.960015
	 B(2,1,6)         =         2.097034	     120.151180
	 B(2,1,7)         =         2.091177	     119.815617
	 B(2,3,4)         =         2.096484	     120.119670
	 B(2,3,9)         =         2.088341	     119.653139
	 B(3,2,8)         =         2.087599	     119.610620
	 B(3,4,5)         =         2.100895	     120.372410
	 B(3,4,10)        =         2.091067	     119.809288
	 B(4,3,9)         =         2.098319	     120.224847
	 B(4,5,6)         =         2.095412	     120.058257
	 B(4,5,11)        =         2.098337	     120.225875
	 B(5,4,10)        =         2.091224	     119.818302
	 B(5,6,12)        =         2.088878	     119.683894
	 B(6,1,7)         =         2.094946	     120.031566
	 B(6,5,11)        =         2.089385	     119.712924
	 B(7,13,17)       =         2.119256	     121.424407
	 B(7,13,18)       =         2.051704	     117.553993
	 B(7,14,15)       =         2.143393	     122.807372
	 B(7,14,16)       =         2.092791	     119.908085
	 B(13,7,14)       =         2.095361	     120.055345
	 B(15,14,16)      =         2.039473	     116.853206
	 B(17,13,18)      =         1.993785	     114.235455
	 D(1,2,3,4)       =         0.012672	       0.726054
	 D(1,2,3,9)       =        -3.119223	    -178.718334
	 D(1,6,5,4)       =         0.007520	       0.430852
	 D(1,6,5,11)      =        -3.123205	    -178.946455
	*D(1,7,13,17)     =         2.792528	     160.000067
	 D(1,7,13,18)     =         0.183757	      10.528511
	 D(1,7,14,15)     =        -3.081058	    -176.531619
	 D(1,7,14,16)     =         0.196294	      11.246798
	 D(2,1,6,5)       =        -0.000095	      -0.005467
	 D(2,1,6,12)      =        -3.087724	    -176.913549
	 D(2,1,7,13)      =        -2.505099	    -143.531579
	 D(2,1,7,14)      =         0.603395	      34.571966
	 D(2,3,4,5)       =        -0.005313	      -0.304399
	 D(2,3,4,10)      =         3.136379	     179.701289
	 D(3,2,1,6)       =        -0.010008	      -0.573417
	 D(3,2,1,7)       =         3.123463	     178.961244
	 D(3,4,5,6)       =        -0.004895	      -0.280470
	 D(3,4,5,11)      =         3.125773	     179.093614
	 D(4,3,2,8)       =         3.095441	     177.355731
	 D(4,5,6,12)      =         3.095627	     177.366371
	 D(5,4,3,9)       =         3.126527	     179.136786
	 D(5,6,1,7)       =        -3.133549	    -179.539117
	 D(6,1,2,8)       =        -3.092130	    -177.165992
	 D(6,1,7,13)      =         0.628382	      36.003644
	 D(6,1,7,14)      =        -2.546310	    -145.892811
	 D(6,5,4,10)      =         3.136598	     179.713841
	 D(7,1,2,8)       =         0.041341	       2.368668
	 D(7,1,6,12)      =         0.062008	       3.552801
	 D(8,2,3,9)       =        -0.036454	      -2.088656
	 D(9,3,4,10)      =        -0.014967	      -0.857526
	 D(10,4,5,11)     =        -0.015919	      -0.912074
	 D(11,5,6,12)     =        -0.035097	      -2.010937
	 D(13,7,14,15)    =         0.027403	       1.570052
	 D(13,7,14,16)    =        -2.978431	    -170.651530
	 D(14,7,13,17)    =        -0.315933	     -18.101654
	 D(14,7,13,18)    =        -2.924704	    -167.573210

	Current energy   :      -381.4679589544

	Energy change for the previous step:
		Projected    :        -0.0000002635
		Actual       :        -0.0000001386

	Performing BFGS update.
	Previous computed or guess Hessian on step 1.
	Steps to be used in Hessian update: 7 6
	Taking RFO optimization step.
	Going to follow RFO solution 1.
	Rejecting RFO root 1 because normalization gives large value.
	Rejecting RFO root 2 because normalization gives large value.
	Using RFO vector 3.
	Norm of target step-size    0.00221
	Projected energy change by RFO approximation:        -0.0000001741

	Back-transformation to cartesian coordinates...
	Successfully converged to displaced geometry.

	Back-transformation to cartesian coordinates to adjust frozen coordinates...
	Successfully converged to displaced geometry.

	--- Internal Coordinate Step in ANG or DEG, aJ/ANG or AJ/DEG ---
	 ---------------------------------------------------------------------------
	   Coordinate                Previous        Force       Change         New 
	   ----------                --------       ------       ------       ------
	    1 R(1,2)          =      1.407168     0.000022     0.000015     1.407182
	    2 R(1,6)          =      1.407565    -0.000004     0.000008     1.407574
	    3 R(1,7)          =      1.468244    -0.000109    -0.000055     1.468189
	    4 R(2,3)          =      1.391742    -0.000064    -0.000013     1.391729
	    5 R(2,8)          =      1.086297     0.000039     0.000010     1.086307
	    6 R(3,4)          =      1.397829     0.000022     0.000007     1.397835
	    7 R(3,9)          =      1.085158     0.000008     0.000003     1.085161
	    8 R(4,5)          =      1.398327     0.000007     0.000005     1.398333
	    9 R(4,10)         =      1.085610    -0.000004    -0.000000     1.085610
	   10 R(5,6)          =      1.391173    -0.000041    -0.000011     1.391162
	   11 R(5,11)         =      1.085141    -0.000001    -0.000000     1.085141
	   12 R(6,12)         =      1.086628     0.000025     0.000008     1.086636
	   13 R(7,13)         =      1.336026    -0.000116    -0.000001     1.336025
	   14 R(7,14)         =      1.328060     0.000075     0.000048     1.328108
	   15 R(13,17)        =      1.014348    -0.000030    -0.000002     1.014346
	   16 R(13,18)        =      1.012896     0.000118     0.000014     1.012910
	   17 R(14,15)        =      1.013521     0.000019     0.000009     1.013530
	   18 R(14,16)        =      1.011754    -0.000031     0.000002     1.011756
	   19 B(1,2,3)        =    119.612964     0.000000     0.001723   119.614687
	   20 B(1,2,8)        =    120.689275     0.000000     0.001298   120.690573
	   21 B(1,6,5)        =    119.681090     0.000001     0.003443   119.684533
	   22 B(1,6,12)       =    120.563170     0.000000     0.000522   120.563692
	   23 B(1,7,13)       =    119.957420    -0.000000     0.010956   119.968376
	   24 B(1,7,14)       =    119.960015     0.000001    -0.009842   119.950173
	   25 B(2,1,6)        =    120.151180    -0.000001    -0.004188   120.146992
	   26 B(2,1,7)        =    119.815617     0.000001     0.002787   119.818404
	   27 B(2,3,4)        =    120.119670     0.000000     0.001159   120.120829
	   28 B(2,3,9)        =    119.653139    -0.000000    -0.001778   119.651361
	   29 B(3,2,8)        =    119.610620    -0.000001    -0.002340   119.608280
	   30 B(3,4,5)        =    120.372410    -0.000000    -0.001561   120.370849
	   31 B(3,4,10)       =    119.809288     0.000000     0.001301   119.810589
	   32 B(4,3,9)        =    120.224847     0.000000     0.000682   120.225529
	   33 B(4,5,6)        =    120.058257    -0.000000    -0.000529   120.057729
	   34 B(4,5,11)       =    120.225875     0.000000     0.000273   120.226148
	   35 B(5,4,10)       =    119.818302     0.000000     0.000260   119.818562
	   36 B(5,6,12)       =    119.683894    -0.000001    -0.004275   119.679619
	   37 B(6,1,7)        =    120.031566     0.000000     0.001416   120.032982
	   38 B(6,5,11)       =    119.712924    -0.000000     0.000217   119.713141
	   39 B(7,13,17)      =    121.424407    -0.000000    -0.009659   121.414748
	   40 B(7,13,18)      =    117.553993     0.000002     0.008627   117.562620
	   41 B(7,14,15)      =    122.807372    -0.000000    -0.006771   122.800600
	   42 B(7,14,16)      =    119.908085     0.000000    -0.001084   119.907000
	   43 B(13,7,14)      =    120.055345    -0.000001    -0.001122   120.054223
	   44 B(15,14,16)     =    116.853206    -0.000000    -0.004067   116.849139
	   45 B(17,13,18)     =    114.235455    -0.000001    -0.006344   114.229111
	   46 D(1,2,3,4)      =      0.726054    -0.000000    -0.005498     0.720556
	   47 D(1,2,3,9)      =   -178.718334    -0.000000    -0.013008  -178.731342
	   48 D(1,6,5,4)      =      0.430852     0.000000     0.001933     0.432785
	   49 D(1,6,5,11)     =   -178.946455     0.000000     0.006051  -178.940404
	   50 *D(1,7,13,17)   =    160.000067    -0.000000    -0.000000   160.000067
	   51 D(1,7,13,18)    =     10.528511    -0.000000     0.016968    10.545479
	   52 D(1,7,14,15)    =   -176.531619    -0.000000    -0.033342  -176.564961
	   53 D(1,7,14,16)    =     11.246798     0.000000     0.073185    11.319983
	   54 D(2,1,6,5)      =     -0.005467    -0.000000    -0.004672    -0.010139
	   55 D(2,1,6,12)     =   -176.913549     0.000000     0.002119  -176.911430
	   56 D(2,1,7,13)     =   -143.531579    -0.000000    -0.016740  -143.548319
	   57 D(2,1,7,14)     =     34.571966    -0.000000    -0.017041    34.554925
	   58 D(2,3,4,5)      =     -0.304399     0.000000     0.002819    -0.301580
	   59 D(2,3,4,10)     =    179.701289    -0.000000    -0.005406   179.695883
	   60 D(3,2,1,6)      =     -0.573417     0.000000     0.006455    -0.566961
	   61 D(3,2,1,7)      =    178.961244     0.000000     0.008574   178.969818
	   62 D(3,4,5,6)      =     -0.280470    -0.000000    -0.000999    -0.281470
	   63 D(3,4,5,11)     =    179.093614    -0.000000    -0.005139   179.088475
	   64 D(4,3,2,8)      =    177.355731     0.000000     0.007725   177.363456
	   65 D(4,5,6,12)     =    177.366371    -0.000000    -0.004650   177.361720
	   66 D(5,4,3,9)      =    179.136786     0.000000     0.010359   179.147144
	   67 D(5,6,1,7)      =   -179.539117    -0.000000    -0.006802  -179.545919
	   68 D(6,1,2,8)      =   -177.165992    -0.000000    -0.006789  -177.172781
	   69 D(6,1,7,13)     =     36.003644    -0.000000    -0.014650    35.988994
	   70 D(6,1,7,14)     =   -145.892811    -0.000000    -0.014950  -145.907761
	   71 D(6,5,4,10)     =    179.713841     0.000000     0.007226   179.721067
	   72 D(7,1,2,8)      =      2.368668     0.000000    -0.004670     2.363999
	   73 D(7,1,6,12)     =      3.552801     0.000000    -0.000011     3.552790
	   74 D(8,2,3,9)      =     -2.088656     0.000000     0.000215    -2.088442
	   75 D(9,3,4,10)     =     -0.857526     0.000000     0.002134    -0.855392
	   76 D(10,4,5,11)    =     -0.912074    -0.000000     0.003087    -0.908988
	   77 D(11,5,6,12)    =     -2.010937    -0.000000    -0.000533    -2.011470
	   78 D(13,7,14,15)   =      1.570052    -0.000000    -0.033412     1.536640
	   79 D(13,7,14,16)   =   -170.651530     0.000000     0.073115  -170.578416
	   80 D(14,7,13,17)   =    -18.101654    -0.000000     0.000467   -18.101186
	   81 D(14,7,13,18)   =   -167.573210    -0.000000     0.017435  -167.555775
	 ---------------------------------------------------------------------------
	Successfully symmetrized geometry.

  ==> Convergence Check <==

  Measures of convergence in internal coordinates in au.
  Criteria marked as inactive (o), active & met (*), and active & unmet ( ).
  ---------------------------------------------------------------------------------------------
   Step     Total Energy     Delta E     MAX Force     RMS Force      MAX Disp      RMS Disp   
  ---------------------------------------------------------------------------------------------
    Convergence Criteria    1.00e-06 *    3.00e-04 *             o    1.20e-03 *             o
  ---------------------------------------------------------------------------------------------
      8    -381.46795895   -1.39e-07 *    2.29e-05 *    6.84e-06 o    1.28e-03      2.45e-04 o  ~
  ---------------------------------------------------------------------------------------------


  **** Optimization is complete! (in 8 steps) ****

  ==> Optimization Summary <==

  Measures of convergence in internal coordinates in au.
  --------------------------------------------------------------------------------------------------------------- ~
   Step         Total Energy             Delta E       MAX Force       RMS Force        MAX Disp        RMS Disp  ~
  --------------------------------------------------------------------------------------------------------------- ~
      1    -381.460715656564   -381.460715656564      0.01082821      0.00229857      0.33684798      0.05474004  ~
      2    -381.465085403192     -0.004369746629      0.02049180      0.00279983      0.26690147      0.04076833  ~
      3    -381.466798869572     -0.001713466380      0.02421784      0.00281027      0.12975852      0.02241129  ~
      4    -381.467854722376     -0.001055852804      0.00506268      0.00071597      0.04089485      0.00758405  ~
      5    -381.467941851280     -0.000087128904      0.00230727      0.00029772      0.01423977      0.00358916  ~
      6    -381.467957366692     -0.000015515411      0.00019491      0.00005237      0.00748678      0.00134617  ~
      7    -381.467958815801     -0.000001449110      0.00007318      0.00001534      0.00162438      0.00039367  ~
      8    -381.467958954434     -0.000000138633      0.00002289      0.00000684      0.00127731      0.00024521  ~
  --------------------------------------------------------------------------------------------------------------- ~

	Writing optimization data to binary file.
	Final energy is   -381.4679589544342
	Final (previous) structure:
	Cartesian Geometry (in Angstrom)
	    C     0.0388355714  -0.0209437665  -0.1837808164
	    C     0.0391852329   1.2016156515   0.5129756437
	    C     0.0061235233   1.2002322019   1.9043238314
	    C    -0.0118938338  -0.0095564253   2.6043323573
	    C    -0.0033033165  -1.2258014223   1.9144095936
	    C     0.0174082668  -1.2377496327   0.5234421180
	    C     0.0505517387  -0.0244614560  -1.6519736461
	    H     0.0094337278   2.1456226358  -0.0236871105
	    H    -0.0147164588   2.1427057841   2.4417976056
	    H    -0.0327664466  -0.0047666701   3.6897315953
	    H    -0.0024997310  -2.1635711158   2.4604113497
	    H     0.0673610721  -2.1854292505  -0.0058669972
	    N    -0.6366293166  -0.9535826700  -2.3224073143
	    N     0.7133150721   0.9181930683  -2.3121934976
	    H     0.7083050701   0.9871764516  -3.3233519013
	    H     1.3449508310   1.5328365519  -1.8153072974
	    H    -0.8972361612  -0.8204876736  -3.2936290743
	    H    -1.2789678416  -1.5327012623  -1.7951674394
	Saving final (previous) structure.
			--------------------------
			 OPTKING Finished Execution 
			--------------------------

    Final optimized geometry and variables:
    Molecular point group: c1
    Full point group: C1

    Geometry (in Angstrom), charge = 1, multiplicity = 1:

    C            0.038835571425    -0.020943766518    -0.183780816444
    C            0.039185232939     1.201615651485     0.512975643681
    C            0.006123523306     1.200232201851     1.904323831420
    C           -0.011893833806    -0.009556425330     2.604332357317
    C           -0.003303316462    -1.225801422325     1.914409593556
    C            0.017408266762    -1.237749632680     0.523442118025
    C            0.050551738662    -0.024461455956    -1.651973646123
    H            0.009433727778     2.145622635821    -0.023687110522
    H           -0.014716458776     2.142705784090     2.441797605560
    H           -0.032766446634    -0.004766670103     3.689731595272
    H           -0.002499731024    -2.163571115782     2.460411349703
    H            0.067361072116    -2.185429250517    -0.005866997203
    N           -0.636629316586    -0.953582669993    -2.322407314254
    N            0.713315072065     0.918193068317    -2.312193497607
    H            0.708305070064     0.987176451610    -3.323351901262
    H            1.344950831013     1.532836551935    -1.815307297401
    H           -0.897236161245    -0.820487673600    -3.293629074305
    H           -1.278967841596    -1.532701262306    -1.795167439412

	Cleaning optimization helper files.


Properties will be evaluated at   0.000000,   0.000000,   0.000000 Bohr

Properties computed using the  density matrix

  Nuclear Dipole Moment: (a.u.)
     X:     2.3850      Y:    -1.5993      Z:    -0.6896

  Electronic Dipole Moment: (a.u.)
     X:    -2.4842      Y:     1.7502      Z:    -1.5379

  Dipole Moment: (a.u.)
     X:    -0.0992      Y:     0.1508      Z:    -2.2274     Total:     2.2347

  Dipole Moment: (Debye)
     X:    -0.2521      Y:     0.3834      Z:    -5.6616     Total:     5.6802

  Quadrupole Moment: (Debye Ang)
    XX:   -49.0335     YY:   -38.5189     ZZ:   -13.7158
    XY:     6.2900     XZ:     0.9241     YZ:    -1.6056

  Traceless Quadrupole Moment: (Debye Ang)
    XX:   -15.2774     YY:    -4.7629     ZZ:    20.0403
    XY:     6.2900     XZ:     0.9241     YZ:    -1.6056

  Mulliken Charges: (a.u.)
   Center  Symbol    Alpha    Beta     Spin     Total
       1     C     2.95576  2.95576  0.00000  0.08849
       2     C     3.08286  3.08286  0.00000 -0.16573
       3     C     3.06246  3.06246  0.00000 -0.12492
       4     C     3.05162  3.05162  0.00000 -0.10325
       5     C     3.06234  3.06234  0.00000 -0.12468
       6     C     3.08439  3.08439  0.00000 -0.16877
       7     C     2.72887  2.72887  0.00000  0.54225
       8     H     0.41491  0.41491  0.00000  0.17018
       9     H     0.40539  0.40539  0.00000  0.18921
      10     H     0.40384  0.40384  0.00000  0.19231
      11     H     0.40518  0.40518  0.00000  0.18964
      12     H     0.41207  0.41207  0.00000  0.17586
      13     N     3.85811  3.85811  0.00000 -0.71622
      14     N     3.86038  3.86038  0.00000 -0.72076
      15     H     0.30472  0.30472  0.00000  0.39056
      16     H     0.29893  0.29893  0.00000  0.40214
      17     H     0.30625  0.30625  0.00000  0.38750
      18     H     0.30191  0.30191  0.00000  0.39619

   Total alpha = 32.00000, Total beta = 32.00000, Total charge =  1.00000


*** Psi4 exiting successfully. Buy a developer a beer!
