
    -----------------------------------------------------------------------
          Psi4: An Open-Source Ab Initio Electronic Structure Package
                               Psi4 1.1 release

                         Git: Rev {HEAD} add49b9 


    R. M. Parrish, L. A. Burns, D. G. A. Smith, A. C. Simmonett,
    A. E. DePrince III, E. G. Hohenstein, U. Bozkaya, A. Yu. Sokolov,
    R. Di Remigio, R. M. Richard, J. F. Gonthier, A. M. James,
    H. R. McAlexander, A. Kumar, M. Saitow, X. Wang, B. P. Pritchard,
    P. Verma, H. F. Schaefer III, K. Patkowski, R. A. King, E. F. Valeev,
    F. A. Evangelista, J. M. Turney, T. D. Crawford, and C. D. Sherrill,
    J. Chem. Theory Comput. in press (2017).
    (doi: 10.1021/acs.jctc.7b00174)

    -----------------------------------------------------------------------


    Psi4 started on: Saturday, 12 August 2017 04:55AM

    Process ID:  12584
    PSIDATADIR: /home/raimis/opt/miniconda3/envs/htmd/share/psi4
    Memory:     500.0 MiB
    Threads:    1
    
  ==> Input File <==

--------------------------------------------------------------------------
set {
	reference rks
	basis 6-31G*
}


set_num_threads( 8 )
memory 2 gb

molecule MOL {
1 1

C	 1.240204	 0.525054	 -2.239814
C	 2.337920	 0.814629	 -1.407810
C	 3.513168	 1.308018	 -1.965557
C	 3.597371	 1.522987	 -3.344659
C	 2.506931	 1.240657	 -4.173186
C	 1.329589	 0.738051	 -3.628233
C	 -0.000000	 -0.000000	 -1.658508
H	 2.291718	 0.608976	 -0.342066
H	 4.366092	 1.515229	 -1.327500
H	 4.515262	 1.911586	 -3.774891
H	 2.571251	 1.421773	 -5.241172
H	 0.471100	 0.560694	 -4.269932
N	 -0.712589	 -0.905950	 -2.322235
N	 -0.409743	 0.430799	 -0.468724
H	 -1.206296	 0.033930	 0.015801
H	 0.037986	 1.230517	 -0.040619
H	 -1.377189	 -1.485970	 -1.827091
H	 -0.673431	 -1.006470	 -3.329771

	symmetry c1
}
set optking { dynamic_level = 1 }
set optking {
	frozen_dihedral = ("
		1 7 13 17
	")
}

ee,wfn = optimize('b3lyp-d3', return_wfn=True)
oeprop( wfn, 'DIPOLE', 'QUADRUPOLE', 'MULLIKEN_CHARGES')
f=open( 'psi4out.xyz', 'w' )
f.write( "18  " )
f.write( str(ee) + "\n" )
f.write( MOL.save_string_xyz() )
f.close()
--------------------------------------------------------------------------
  Threads set to 8 by Python driver.

  Memory set to   1.863 GiB by Python driver.
gradient() will perform analytic gradient computation.

*** tstart() called on computer03
*** at Sat Aug 12 04:55:42 2017

   => Loading Basis Set <=

    Name: 6-31G*
    Role: ORBITAL
    Keyword: BASIS
    atoms 1-7         entry C          line   102 file /home/raimis/opt/miniconda3/envs/htmd/share/psi4/basis/6-31gs.gbs 
    atoms 8-12, 15-18 entry H          line    35 file /home/raimis/opt/miniconda3/envs/htmd/share/psi4/basis/6-31gs.gbs 
    atoms 13-14       entry N          line   119 file /home/raimis/opt/miniconda3/envs/htmd/share/psi4/basis/6-31gs.gbs 


         ---------------------------------------------------------
                                   SCF
            by Justin Turney, Rob Parrish, and Andy Simmonett
                              RKS Reference
                        8 Threads,   1907 MiB Core
         ---------------------------------------------------------

  ==> Geometry <==

    Molecular point group: c1
    Full point group: C1

    Geometry (in Angstrom), charge = 1, multiplicity = 1:

       Center              X                  Y                   Z               Mass       
    ------------   -----------------  -----------------  -----------------  -----------------
           C         -0.161129340006    -0.069337833204     0.075993404686    12.000000000000
           C          0.936586659994     0.220237166796     0.907997404686    12.000000000000
           C          2.111834659994     0.713626166796     0.350250404686    12.000000000000
           C          2.196037659994     0.928595166796    -1.028851595314    12.000000000000
           C          1.105597659994     0.646265166796    -1.857378595314    12.000000000000
           C         -0.071744340006     0.143659166796    -1.312425595314    12.000000000000
           C         -1.401333340006    -0.594391833204     0.657299404686    12.000000000000
           H          0.890384659994     0.014584166796     1.973741404686     1.007825032070
           H          2.964758659994     0.920837166796     0.988307404686     1.007825032070
           H          3.113928659994     1.317194166796    -1.459083595314     1.007825032070
           H          1.169917659994     0.827381166796    -2.925364595314     1.007825032070
           H         -0.930233340006    -0.033697833204    -1.954124595314     1.007825032070
           N         -2.113922340006    -1.500341833204    -0.006427595314    14.003074004780
           N         -1.811076340006    -0.163592833204     1.847083404686    14.003074004780
           H         -2.607629340006    -0.560461833204     2.331608404686     1.007825032070
           H         -1.363347340006     0.636125166796     2.275188404686     1.007825032070
           H         -2.778522340006    -2.080361833204     0.488716404686     1.007825032070
           H         -2.074764340006    -1.600861833204    -1.013963595314     1.007825032070

  Running in c1 symmetry.

  Rotational constants: A =      0.12182  B =      0.03960  C =      0.03126 [cm^-1]
  Rotational constants: A =   3651.97284  B =   1187.06193  C =    937.22309 [MHz]
  Nuclear repulsion =  416.889529018919632

  Charge       = 1
  Multiplicity = 1
  Electrons    = 64
  Nalpha       = 32
  Nbeta        = 32

  ==> Algorithm <==

  SCF Algorithm Type is DF.
  DIIS enabled.
  MOM disabled.
  Fractional occupation disabled.
  Guess Type is SAD.
  Energy threshold   = 1.00e-08
  Density threshold  = 1.00e-08
  Integral threshold = 0.00e+00

  ==> Primary Basis <==

  Basis Set: 6-31G*
    Blend: 6-31G*
    Number of shells: 72
    Number of basis function: 153
    Number of Cartesian functions: 153
    Spherical Harmonics?: false
    Max angular momentum: 2

  ==> DFT Potential <==

   => B3LYP Composite Functional <= 

    B3LYP Hybrid-GGA Exchange-Correlation Functional (VWN1-RPA)

    P.J. Stephens et. al., J. Phys. Chem., 98, 11623-11627, 1994

    Points   =           5000
    Deriv    =              1
    GGA      =           TRUE
    Meta     =          FALSE

    X_LRC        =          FALSE
    X_Hybrid     =           TRUE
    X_Alpha      =   2.000000E-01
    X_Omega      =   0.000000E+00
    C_LRC        =          FALSE
    C_Hybrid     =          FALSE
    C_Alpha      =   0.000000E+00
    C_Omega      =   0.000000E+00

   => Exchange Functionals <=

    0.8000    B3_X
    0.2000      HF 

   => Correlation Functionals <=

    0.1900 VWN3RPA_C
    0.8100   LYP_C

   => Molecular Quadrature <=

    Radial Scheme    =       TREUTLER
    Pruning Scheme   =           FLAT
    Nuclear Scheme   =       TREUTLER

    BS radius alpha  =              1
    Pruning alpha    =              1
    Radial Points    =             75
    Spherical Points =            302
    Total Points     =         396895
    Total Blocks     =            332
    Max Points       =           4998
    Max Functions    =            149

   => -D3ZERO: Empirical Dispersion <=

    Grimme's -D3 (zero-damping) Dispersion Correction
    Grimme S.; Antony J.; Ehrlich S.; Krieg H. (2010), J. Chem. Phys., 132: 154104

        S6 =   1.000000E+00
        S8 =   1.703000E+00
       SR6 =   1.261000E+00
    ALPHA6 =   1.400000E+01

   => Loading Basis Set <=

    Name: (6-31G* AUX)
    Role: JKFIT
    Keyword: DF_BASIS_SCF
    atoms 1-7         entry C          line   120 file /home/raimis/opt/miniconda3/envs/htmd/share/psi4/basis/cc-pvdz-jkfit.gbs 
    atoms 8-12, 15-18 entry H          line    50 file /home/raimis/opt/miniconda3/envs/htmd/share/psi4/basis/cc-pvdz-jkfit.gbs 
    atoms 13-14       entry N          line   170 file /home/raimis/opt/miniconda3/envs/htmd/share/psi4/basis/cc-pvdz-jkfit.gbs 

  ==> Pre-Iterations <==

   -------------------------------------------------------
    Irrep   Nso     Nmo     Nalpha   Nbeta   Ndocc  Nsocc
   -------------------------------------------------------
     A        153     153       0       0       0       0
   -------------------------------------------------------
    Total     153     153      32      32      32       0
   -------------------------------------------------------

  ==> Integral Setup <==

  ==> DFJK: Density-Fitted J/K Matrices <==

    J tasked:                  Yes
    K tasked:                  Yes
    wK tasked:                  No
    OpenMP threads:              8
    Integrals threads:           8
    Memory (MB):              1430
    Algorithm:                Core
    Integral Cache:           NONE
    Schwarz Cutoff:          1E-12
    Fitting Condition:       1E-12

   => Auxiliary Basis Set <=

  Basis Set: (6-31G* AUX)
    Blend: CC-PVDZ-JKFIT
    Number of shells: 297
    Number of basis function: 954
    Number of Cartesian functions: 954
    Spherical Harmonics?: false
    Max angular momentum: 3

  Minimum eigenvalue in the overlap matrix is 4.8637246773E-04.
  Using Symmetric Orthogonalization.

  SCF Guess: Superposition of Atomic Densities via on-the-fly atomic UHF.

  ==> Iterations <==

                           Total Energy        Delta E     RMS |[F,P]|

   @DF-RKS iter   0:  -379.37165680089555   -3.79372e+02   6.46461e-02 
   @DF-RKS iter   1:  -380.98619462343055   -1.61454e+00   1.23770e-02 
   @DF-RKS iter   2:  -380.89128143400586    9.49132e-02   1.36155e-02 DIIS
   @DF-RKS iter   3:  -381.45137992628457   -5.60098e-01   1.81374e-03 DIIS
   @DF-RKS iter   4:  -381.45797260037966   -6.59267e-03   9.96500e-04 DIIS
   @DF-RKS iter   5:  -381.46052334954476   -2.55075e-03   2.53665e-04 DIIS
   @DF-RKS iter   6:  -381.46068859721117   -1.65248e-04   9.26103e-05 DIIS
   @DF-RKS iter   7:  -381.46071372944920   -2.51322e-05   2.53233e-05 DIIS
   @DF-RKS iter   8:  -381.46071556367735   -1.83423e-06   4.58303e-06 DIIS
   @DF-RKS iter   9:  -381.46071565428747   -9.06101e-08   1.66127e-06 DIIS
   @DF-RKS iter  10:  -381.46071566333228   -9.04481e-09   5.95548e-07 DIIS
   @DF-RKS iter  11:  -381.46071566429606   -9.63780e-10   1.70255e-07 DIIS
   @DF-RKS iter  12:  -381.46071566438025   -8.41851e-11   5.48937e-08 DIIS
   @DF-RKS iter  13:  -381.46071566439724   -1.69962e-11   7.69149e-09 DIIS

  ==> Post-Iterations <==

    Orbital Energies (a.u.)
    -----------------------

    Doubly Occupied:                                                      

       1A    -14.570842     2A    -14.563710     3A    -10.499440  
       4A    -10.373693     5A    -10.357179     6A    -10.356248  
       7A    -10.342140     8A    -10.340652     9A    -10.340092  
      10A     -1.184777    11A     -1.092009    12A     -1.014350  
      13A     -0.926769    14A     -0.902494    15A     -0.845977  
      16A     -0.786253    17A     -0.773960    18A     -0.740916  
      19A     -0.733040    20A     -0.691929    21A     -0.670714  
      22A     -0.629493    23A     -0.613392    24A     -0.590215  
      25A     -0.577342    26A     -0.573441    27A     -0.516631  
      28A     -0.506523    29A     -0.498477    30A     -0.469327  
      31A     -0.409439    32A     -0.405450  

    Virtual:                                                              

      33A     -0.220901    34A     -0.156569    35A     -0.136824  
      36A     -0.111492    37A     -0.074030    38A     -0.058094  
      39A     -0.039602    40A     -0.031402    41A      0.007300  
      42A      0.019674    43A      0.028057    44A      0.060466  
      45A      0.066497    46A      0.084874    47A      0.123286  
      48A      0.149226    49A      0.156935    50A      0.165156  
      51A      0.205398    52A      0.242603    53A      0.298108  
      54A      0.350327    55A      0.354698    56A      0.379445  
      57A      0.389078    58A      0.397587    59A      0.420473  
      60A      0.423097    61A      0.440863    62A      0.450267  
      63A      0.453670    64A      0.471072    65A      0.471658  
      66A      0.474871    67A      0.486138    68A      0.503470  
      69A      0.513493    70A      0.537892    71A      0.544058  
      72A      0.589452    73A      0.610255    74A      0.651404  
      75A      0.663229    76A      0.679199    77A      0.689844  
      78A      0.705304    79A      0.716555    80A      0.723711  
      81A      0.760336    82A      0.772980    83A      0.775818  
      84A      0.807036    85A      0.815105    86A      0.838916  
      87A      0.851450    88A      0.930518    89A      0.959223  
      90A      0.975455    91A      1.001459    92A      1.022473  
      93A      1.023421    94A      1.070343    95A      1.140593  
      96A      1.165556    97A      1.259559    98A      1.271270  
      99A      1.279671   100A      1.310894   101A      1.323149  
     102A      1.342391   103A      1.352865   104A      1.363164  
     105A      1.400308   106A      1.451871   107A      1.528006  
     108A      1.614617   109A      1.623262   110A      1.650707  
     111A      1.678944   112A      1.736602   113A      1.752212  
     114A      1.797221   115A      1.825862   116A      1.834467  
     117A      1.896456   118A      1.924426   119A      1.957921  
     120A      1.980358   121A      1.995723   122A      2.016020  
     123A      2.024888   124A      2.064425   125A      2.115841  
     126A      2.127993   127A      2.151694   128A      2.192744  
     129A      2.217504   130A      2.284587   131A      2.339857  
     132A      2.381817   133A      2.447090   134A      2.452290  
     135A      2.489131   136A      2.523255   137A      2.545085  
     138A      2.589625   139A      2.603932   140A      2.628573  
     141A      2.737826   142A      2.871850   143A      2.985729  
     144A      3.258507   145A      3.633082   146A      3.659740  
     147A      3.915351   148A      3.948424   149A      3.963737  
     150A      4.050827   151A      4.173538   152A      4.255779  
     153A      4.546325  

    Final Occupation by Irrep:
              A 
    DOCC [    32 ]

  Energy converged.

  @DF-RKS Final Energy:  -381.46071566439724

   => Energetics <=

    Nuclear Repulsion Energy =            416.8895290189196317
    One-Electron Energy =               -1328.9583068939427903
    Two-Electron Energy =                 575.0266723678844301
    DFT Exchange-Correlation Energy =     -44.4067455772584907
    Empirical Dispersion Energy =          -0.0118645800000000
    PCM Polarization Energy =               0.0000000000000000
    EFP Energy =                            0.0000000000000000
    Total Energy =                       -381.4607156643972985



Properties will be evaluated at   0.000000,   0.000000,   0.000000 Bohr

Properties computed using the SCF density matrix

  Nuclear Dipole Moment: (a.u.)
     X:    -1.5031      Y:    -0.5195      Z:     0.6556

  Electronic Dipole Moment: (a.u.)
     X:    -0.4789      Y:    -0.2291      Z:     0.2759

  Dipole Moment: (a.u.)
     X:    -1.9820      Y:    -0.7485      Z:     0.9315     Total:     2.3144

  Dipole Moment: (Debye)
     X:    -5.0377      Y:    -1.9026      Z:     2.3676     Total:     5.8825


*** tstop() called on computer03 at Sat Aug 12 04:56:39 2017
Module time:
	user time   =      93.11 seconds =       1.55 minutes
	system time =       1.35 seconds =       0.02 minutes
	total time  =         57 seconds =       0.95 minutes
Total time:
	user time   =      93.11 seconds =       1.55 minutes
	system time =       1.35 seconds =       0.02 minutes
	total time  =         57 seconds =       0.95 minutes

*** tstart() called on computer03
*** at Sat Aug 12 04:56:39 2017


         ------------------------------------------------------------
                                   SCF GRAD                          
                          Rob Parrish, Justin Turney,                
                       Andy Simmonett, and Alex Sokolov              
         ------------------------------------------------------------

  ==> Geometry <==

    Molecular point group: c1
    Full point group: C1

    Geometry (in Angstrom), charge = 1, multiplicity = 1:

       Center              X                  Y                   Z               Mass       
    ------------   -----------------  -----------------  -----------------  -----------------
           C         -0.161129340006    -0.069337833204     0.075993404686    12.000000000000
           C          0.936586659994     0.220237166796     0.907997404686    12.000000000000
           C          2.111834659994     0.713626166796     0.350250404686    12.000000000000
           C          2.196037659994     0.928595166796    -1.028851595314    12.000000000000
           C          1.105597659994     0.646265166796    -1.857378595314    12.000000000000
           C         -0.071744340006     0.143659166796    -1.312425595314    12.000000000000
           C         -1.401333340006    -0.594391833204     0.657299404686    12.000000000000
           H          0.890384659994     0.014584166796     1.973741404686     1.007825032070
           H          2.964758659994     0.920837166796     0.988307404686     1.007825032070
           H          3.113928659994     1.317194166796    -1.459083595314     1.007825032070
           H          1.169917659994     0.827381166796    -2.925364595314     1.007825032070
           H         -0.930233340006    -0.033697833204    -1.954124595314     1.007825032070
           N         -2.113922340006    -1.500341833204    -0.006427595314    14.003074004780
           N         -1.811076340006    -0.163592833204     1.847083404686    14.003074004780
           H         -2.607629340006    -0.560461833204     2.331608404686     1.007825032070
           H         -1.363347340006     0.636125166796     2.275188404686     1.007825032070
           H         -2.778522340006    -2.080361833204     0.488716404686     1.007825032070
           H         -2.074764340006    -1.600861833204    -1.013963595314     1.007825032070

  Nuclear repulsion =  416.889529018919632

  ==> Basis Set <==

  Basis Set: 6-31G*
    Blend: 6-31G*
    Number of shells: 72
    Number of basis function: 153
    Number of Cartesian functions: 153
    Spherical Harmonics?: false
    Max angular momentum: 2

  ==> DFJKGrad: Density-Fitted SCF Gradients <==

    Gradient:                    1
    J tasked:                  Yes
    K tasked:                  Yes
    wK tasked:                  No
    OpenMP threads:              8
    Integrals threads:           8
    Memory (MB):              1430
    Schwarz Cutoff:          0E+00
    Fitting Condition:       1E-12

   => Auxiliary Basis Set <=

  Basis Set: (6-31G* AUX)
    Blend: CC-PVDZ-JKFIT
    Number of shells: 297
    Number of basis function: 954
    Number of Cartesian functions: 954
    Spherical Harmonics?: false
    Max angular momentum: 3

  ==> DFT Potential <==

   => B3LYP Composite Functional <= 

    B3LYP Hybrid-GGA Exchange-Correlation Functional (VWN1-RPA)

    P.J. Stephens et. al., J. Phys. Chem., 98, 11623-11627, 1994

    Points   =           5000
    Deriv    =              1
    GGA      =           TRUE
    Meta     =          FALSE

    X_LRC        =          FALSE
    X_Hybrid     =           TRUE
    X_Alpha      =   2.000000E-01
    X_Omega      =   0.000000E+00
    C_LRC        =          FALSE
    C_Hybrid     =          FALSE
    C_Alpha      =   0.000000E+00
    C_Omega      =   0.000000E+00

   => Exchange Functionals <=

    0.8000    B3_X
    0.2000      HF 

   => Correlation Functionals <=

    0.1900 VWN3RPA_C
    0.8100   LYP_C

   => Molecular Quadrature <=

    Radial Scheme    =       TREUTLER
    Pruning Scheme   =           FLAT
    Nuclear Scheme   =       TREUTLER

    BS radius alpha  =              1
    Pruning alpha    =              1
    Radial Points    =             75
    Spherical Points =            302
    Total Points     =         396895
    Total Blocks     =            332
    Max Points       =           4998
    Max Functions    =            149


  -Total Gradient:
     Atom            X                  Y                   Z
    ------   -----------------  -----------------  -----------------
       1        0.002496956486    -0.007042271989     0.003721732137
       2        0.001701101491    -0.000326381235    -0.000432913466
       3       -0.000520908715     0.000389157266     0.001349914597
       4       -0.000292412508    -0.000105306441    -0.000833195128
       5        0.001089953078     0.000280815647     0.000481643538
       6       -0.002038439272    -0.000430397962    -0.001715129334
       7       -0.001531731120    -0.007275703131     0.003874452959
       8        0.000014944928    -0.000243841647     0.000024356678
       9        0.000022466682     0.000114281340    -0.000047702096
      10        0.000067965840     0.000002165673     0.000026775787
      11       -0.000066639270     0.000029687519     0.000012274953
      12       -0.000561352801    -0.000514964593     0.001298421136
      13        0.006718609500     0.005656112777    -0.004975345040
      14       -0.004346918190     0.005608858208    -0.001990855431
      15        0.001384469954    -0.001334675768     0.000796963059
      16       -0.002803745871     0.002640137385    -0.001930378499
      17        0.008202303770    -0.003085034958     0.003920870161
      18       -0.009547640973     0.005628182220    -0.003577117016


*** tstop() called on computer03 at Sat Aug 12 04:56:49 2017
Module time:
	user time   =      23.40 seconds =       0.39 minutes
	system time =       0.36 seconds =       0.01 minutes
	total time  =         10 seconds =       0.17 minutes
Total time:
	user time   =     116.58 seconds =       1.94 minutes
	system time =       1.72 seconds =       0.03 minutes
	total time  =         67 seconds =       1.12 minutes

			-----------------------------------------
			 OPTKING 2.0: for geometry optimizations 
			  - R.A. King,  Bethel University        
			-----------------------------------------
	At level 1: Red. Int., RFO, no backsteps, dynamic trust

	Internal coordinates to be generated automatically.
	Detected frag 1 with atoms:  1 2 3 4 5 6 7 8 9 10 11 12 13 14 15 16 17 18
	---Fragment 1 Bond Connectivity---
	 1 : 2 6 7
	 2 : 1 3 8
	 3 : 2 4 9
	 4 : 3 5 10
	 5 : 4 6 11
	 6 : 1 5 12
	 7 : 1 13 14
	 8 : 2
	 9 : 3
	 10 : 4
	 11 : 5
	 12 : 6
	 13 : 7 17 18
	 14 : 7 15 16
	 15 : 14
	 16 : 14
	 17 : 13
	 18 : 13

	Assuming in current code that numbering for constraints corresponds to unified fragment.
	Frozen dihedral atom list: 
	     1     7    13    17
	---Fragment 1 Geometry and Gradient---
	 C          -0.3044903246       -0.1310295154        0.1436067228
	 C           1.7698922871        0.4161879295        1.7158664242
	 C           3.9907891453        1.3485580165        0.6618773428
	 C           4.1499097549        1.7547905536       -1.9442477465
	 C           2.0892767905        1.2212641745       -3.5099368702
	 C          -0.1355771542        0.2714764817       -2.4801249449
	 C          -2.6481362335       -1.1232377804        1.2421158622
	 H           1.6825831603        0.0275600811        3.7298307120
	 H           5.6025819175        1.7401300582        1.8676303300
	 H           5.8844723647        2.4891362391       -2.7572684001
	 H           2.2108239754        1.5635238128       -5.5281379240
	 H          -1.7578862523       -0.0636796760       -3.6927603147
	 N          -3.9947342888       -2.8352351705       -0.0121463948
	 N          -3.4224382884       -0.3091456521        3.4904817795
	 H          -4.9277053087       -1.0591193727        4.4061013340
	 H          -2.5763530966        1.2021023515        4.2994829856
	 H          -5.2506462767       -3.9313141221        0.9235401615
	 H          -3.9207363929       -3.0251904413       -1.9161135039
	             0.0024969565       -0.0070422720        0.0037217321
	             0.0017011015       -0.0003263812       -0.0004329135
	            -0.0005209087        0.0003891573        0.0013499146
	            -0.0002924125       -0.0001053064       -0.0008331951
	             0.0010899531        0.0002808156        0.0004816435
	            -0.0020384393       -0.0004303980       -0.0017151293
	            -0.0015317311       -0.0072757031        0.0038744530
	             0.0000149449       -0.0002438416        0.0000243567
	             0.0000224667        0.0001142813       -0.0000477021
	             0.0000679658        0.0000021657        0.0000267758
	            -0.0000666393        0.0000296875        0.0000122750
	            -0.0005613528       -0.0005149646        0.0012984211
	             0.0067186095        0.0056561128       -0.0049753450
	            -0.0043469182        0.0056088582       -0.0019908554
	             0.0013844700       -0.0013346758        0.0007969631
	            -0.0028037459        0.0026401374       -0.0019303785
	             0.0082023038       -0.0030850350        0.0039208702
	            -0.0095476410        0.0056281822       -0.0035771170

	Previous optimization step data not found.  Starting new optimization.

	---Fragment 1 Intrafragment Coordinates---
	 - Coordinate -           - BOHR/RAD -       - ANG/DEG -
	 R(1,2)           =         2.659795	       1.407503
	 R(1,6)           =         2.659795	       1.407503
	 R(1,7)           =         2.771980	       1.466869
	 R(2,3)           =         2.629180	       1.391302
	 R(2,8)           =         2.052975	       1.086388
	 R(3,4)           =         2.642391	       1.398293
	 R(3,9)           =         2.050621	       1.085142
	 R(4,5)           =         2.642393	       1.398294
	 R(4,10)          =         2.051578	       1.085648
	 R(5,6)           =         2.629179	       1.391302
	 R(5,11)          =         2.050622	       1.085142
	 R(6,12)          =         2.052974	       1.086387
	 R(7,13)          =         2.513451	       1.330061
	 R(7,14)          =         2.513452	       1.330061
	 R(13,17)         =         1.911600	       1.011575
	 R(13,18)         =         1.914850	       1.013295
	 R(14,15)         =         1.914849	       1.013295
	 R(14,16)         =         1.911600	       1.011575
	 B(1,2,3)         =         2.088381	     119.655409
	 B(1,2,8)         =         2.103396	     120.515693
	 B(1,6,5)         =         2.088381	     119.655405
	 B(1,6,12)        =         2.103396	     120.515712
	 B(1,7,13)        =         2.093264	     119.935166
	 B(1,7,14)        =         2.093264	     119.935184
	 B(2,1,6)         =         2.097218	     120.161763
	 B(2,1,7)         =         2.092983	     119.919095
	 B(2,3,4)         =         2.095279	     120.050628
	 B(2,3,9)         =         2.089719	     119.732104
	 B(3,2,8)         =         2.090148	     119.756687
	 B(3,4,5)         =         2.101793	     120.423876
	 B(3,4,10)        =         2.090696	     119.788080
	 B(4,3,9)         =         2.098136	     120.214310
	 B(4,5,6)         =         2.095279	     120.050639
	 B(4,5,11)        =         2.098135	     120.214294
	 B(5,4,10)        =         2.090696	     119.788044
	 B(5,6,12)        =         2.090148	     119.756670
	 B(6,1,7)         =         2.092984	     119.919142
	 B(6,5,11)        =         2.089719	     119.732108
	 B(7,13,17)       =         2.092411	     119.886337
	 B(7,13,18)       =         2.144861	     122.891462
	 B(7,14,15)       =         2.144860	     122.891453
	 B(7,14,16)       =         2.092412	     119.886377
	 B(13,7,14)       =         2.096658	     120.129650
	 B(15,14,16)      =         2.043398	     117.078107
	 B(17,13,18)      =         2.043399	     117.078143
	 D(1,2,3,4)       =         0.007800	       0.446881
	 D(1,2,3,9)       =        -3.122897	    -178.928834
	 D(1,6,5,4)       =         0.007799	       0.446853
	 D(1,6,5,11)      =        -3.122896	    -178.928733
	*D(1,7,13,17)     =         2.792527	     160.000011
	 D(1,7,13,18)     =        -0.427482	     -24.492925
	 D(1,7,14,15)     =        -3.032165	    -173.730281
	 D(1,7,14,16)     =         0.187845	      10.762732
	 D(2,1,6,5)       =        -0.003907	      -0.223841
	 D(2,1,6,12)      =        -3.091437	    -177.126304
	 D(2,1,7,13)      =        -2.505167	    -143.535520
	 D(2,1,7,14)      =         0.636426	      36.464508
	 D(2,3,4,5)       =        -0.003943	      -0.225940
	 D(2,3,4,10)      =         3.137650	     179.774124
	 D(3,2,1,6)       =        -0.003906	      -0.223810
	 D(3,2,1,7)       =         3.137686	     179.776182
	 D(3,4,5,6)       =        -0.003942	      -0.225853
	 D(3,4,5,11)      =         3.126700	     179.146695
	 D(4,3,2,8)       =         3.095746	     177.373172
	 D(4,5,6,12)      =         3.095744	     177.373070
	 D(5,4,3,9)       =         3.126700	     179.146736
	 D(5,6,1,7)       =         3.137686	     179.776167
	 D(6,1,2,8)       =        -3.091438	    -177.126349
	 D(6,1,7,13)      =         0.636425	      36.464473
	 D(6,1,7,14)      =        -2.505167	    -143.535500
	 D(6,5,4,10)      =         3.137650	     179.774082
	 D(7,1,2,8)       =         0.050155	       2.873643
	 D(7,1,6,12)      =         0.050156	       2.873704
	 D(8,2,3,9)       =        -0.034951	      -2.002542
	 D(9,3,4,10)      =        -0.014891	      -0.853199
	 D(10,4,5,11)     =        -0.014894	      -0.853370
	 D(11,5,6,12)     =        -0.034951	      -2.002516
	 D(13,7,14,15)    =         0.109428	       6.269746
	 D(13,7,14,16)    =        -2.953747	    -169.237240
	 D(14,7,13,17)    =        -0.349066	     -20.000016
	 D(14,7,13,18)    =         2.714110	     155.507048

	Current energy   :      -381.4607156644

	Generating empirical Hessian (Schlegel '84) for each fragment.
	Taking RFO optimization step.
	Going to follow RFO solution 1.
	Using RFO vector 1.

	Determining step-restricting scale parameter for RS-RFO.
	Maximum step size allowed    0.50000

	 Iter      |step|        alpha        rfo_root  
	------------------------------------------------
	    0     0.53617       1.00000           1
	    1     0.50371       1.28246           1
	    2     0.50005       1.31840           1
	    3     0.50000       1.31886           1
	------------------------------------------------
	Norm of target step-size    0.50000
	Projected energy change by RFO approximation:        -0.0035660968

	Back-transformation to cartesian coordinates...
	Could not converge backtransformation.
	Using first guess instead.

	Back-transformation to cartesian coordinates to adjust frozen coordinates...
	Successfully converged to displaced geometry.

	--- Internal Coordinate Step in ANG or DEG, aJ/ANG or AJ/DEG ---
	 ---------------------------------------------------------------------------
	   Coordinate                Previous        Force       Change         New 
	   ----------                --------       ------       ------       ------
	    1 R(1,2)          =      1.407503    -0.005734    -0.000631     1.406872
	    2 R(1,6)          =      1.407503     0.003767     0.000751     1.408254
	    3 R(1,7)          =      1.466869     0.022426     0.003945     1.470814
	    4 R(2,3)          =      1.391302     0.004723     0.001188     1.392491
	    5 R(2,8)          =      1.086388    -0.000568     0.000051     1.086439
	    6 R(3,4)          =      1.398293    -0.007855    -0.000868     1.397425
	    7 R(3,9)          =      1.085142    -0.000097     0.000226     1.085367
	    8 R(4,5)          =      1.398294    -0.000801     0.000162     1.398457
	    9 R(4,10)         =      1.085648    -0.000399     0.000287     1.085935
	   10 R(5,6)          =      1.391302    -0.005746    -0.000403     1.390899
	   11 R(5,11)         =      1.085142     0.000087     0.000160     1.085302
	   12 R(6,12)         =      1.086387     0.001974     0.000749     1.087135
	   13 R(7,13)         =      1.330061     0.050707     0.006696     1.336757
	   14 R(7,14)         =      1.330061    -0.010060     0.001593     1.331654
	   15 R(13,17)        =      1.011575     0.014018     0.002053     1.013628
	   16 R(13,18)        =      1.013295    -0.021662     0.022697     1.035991
	   17 R(14,15)        =      1.013295     0.001529     0.000293     1.013588
	   18 R(14,16)        =      1.011575    -0.000251     0.006415     1.017990
	   19 B(1,2,3)        =    119.655409     0.000023     0.072761   119.728170
	   20 B(1,2,8)        =    120.515693    -0.000007    -0.030060   120.485633
	   21 B(1,6,5)        =    119.655405     0.000057     0.177424   119.832828
	   22 B(1,6,12)       =    120.515712     0.000087     0.414311   120.930023
	   23 B(1,7,13)       =    119.935166     0.000341     0.928925   120.864091
	   24 B(1,7,14)       =    119.935184    -0.000253    -0.832422   119.102762
	   25 B(2,1,6)        =    120.161763    -0.000075    -0.220958   119.940805
	   26 B(2,1,7)        =    119.919095    -0.000220    -0.631818   119.287277
	   27 B(2,3,4)        =    120.050628     0.000022     0.072384   120.123012
	   28 B(2,3,9)        =    119.732104    -0.000018    -0.054633   119.677471
	   29 B(3,2,8)        =    119.756687    -0.000017    -0.065532   119.691155
	   30 B(3,4,5)        =    120.423876    -0.000024    -0.097332   120.326544
	   31 B(3,4,10)       =    119.788080     0.000016     0.062907   119.850987
	   32 B(4,3,9)        =    120.214310    -0.000004    -0.016073   120.198236
	   33 B(4,5,6)        =    120.050639    -0.000003    -0.011274   120.039364
	   34 B(4,5,11)       =    120.214294    -0.000002    -0.017649   120.196645
	   35 B(5,4,10)       =    119.788044     0.000008     0.034425   119.822469
	   36 B(5,6,12)       =    119.756670    -0.000143    -0.585723   119.170946
	   37 B(6,1,7)        =    119.919142     0.000295     0.852364   120.771506
	   38 B(6,5,11)       =    119.732108     0.000006     0.030513   119.762621
	   39 B(7,13,17)      =    119.886337     0.000487     2.301927   122.188263
	   40 B(7,13,18)      =    122.891462    -0.000368    -1.877562   121.013900
	   41 B(7,14,15)      =    122.891453     0.000007     0.036106   122.927560
	   42 B(7,14,16)      =    119.886377     0.000003     0.266483   120.152860
	   43 B(13,7,14)      =    120.129650    -0.000088    -0.489276   119.640374
	   44 B(15,14,16)     =    117.078107    -0.000001    -0.167728   116.910379
	   45 B(17,13,18)     =    117.078143    -0.000084    -0.683098   116.395046
	   46 D(1,2,3,4)      =      0.446881     0.000006     0.619006     1.065887
	   47 D(1,2,3,9)      =   -178.928834     0.000004     0.405604  -178.523230
	   48 D(1,6,5,4)      =      0.446853     0.000001     0.078559     0.525411
	   49 D(1,6,5,11)     =   -178.928733    -0.000001    -0.121012  -179.049746
	   50 *D(1,7,13,17)   =    160.000011     0.000000     0.000000   160.000011
	   51 D(1,7,13,18)    =    -24.492925     0.000126    12.041759   -12.451166
	   52 D(1,7,14,15)    =   -173.730281     0.000002     0.565532  -173.164749
	   53 D(1,7,14,16)    =     10.762732    -0.000031    -2.789341     7.973391
	   54 D(2,1,6,5)      =     -0.223841     0.000003     0.347389     0.123549
	   55 D(2,1,6,12)     =   -177.126304     0.000003     0.233301  -176.893002
	   56 D(2,1,7,13)     =   -143.535520     0.000028     3.131581  -140.403939
	   57 D(2,1,7,14)     =     36.464508    -0.000035    -4.088179    32.376328
	   58 D(2,3,4,5)      =     -0.225940    -0.000002    -0.194178    -0.420119
	   59 D(2,3,4,10)     =    179.774124    -0.000002    -0.194416   179.579709
	   60 D(3,2,1,6)      =     -0.223810    -0.000006    -0.695634    -0.919445
	   61 D(3,2,1,7)      =    179.776182    -0.000008    -0.927367   178.848815
	   62 D(3,4,5,6)      =     -0.225853    -0.000001    -0.156833    -0.382686
	   63 D(3,4,5,11)     =    179.146695     0.000001     0.043916   179.190611
	   64 D(4,3,2,8)      =    177.373172     0.000002     0.165807   177.538979
	   65 D(4,5,6,12)     =    177.373070     0.000003     0.221468   177.594537
	   66 D(5,4,3,9)      =    179.146736     0.000000     0.020105   179.166841
	   67 D(5,6,1,7)      =    179.776167     0.000005     0.582618   180.358785
	   68 D(6,1,2,8)      =   -177.126349    -0.000002    -0.237700  -177.364049
	   69 D(6,1,7,13)     =     36.464473     0.000027     2.897872    39.362345
	   70 D(6,1,7,14)     =   -143.535500    -0.000036    -4.321888  -147.857388
	   71 D(6,5,4,10)     =    179.774082    -0.000001    -0.156596   179.617487
	   72 D(7,1,2,8)      =      2.873643    -0.000004    -0.469433     2.404210
	   73 D(7,1,6,12)     =      2.873704     0.000004     0.468530     3.342234
	   74 D(8,2,3,9)      =     -2.002542    -0.000000    -0.047595    -2.050138
	   75 D(9,3,4,10)     =     -0.853199     0.000000     0.019868    -0.833331
	   76 D(10,4,5,11)    =     -0.853370     0.000001     0.044153    -0.809217
	   77 D(11,5,6,12)    =     -2.002516     0.000001     0.021897    -1.980620
	   78 D(13,7,14,15)   =      6.269746    -0.000061    -6.564381    -0.294635
	   79 D(13,7,14,16)   =   -169.237240    -0.000094    -9.919254  -179.156494
	   80 D(14,7,13,17)   =    -20.000016     0.000063     7.258194   -12.741822
	   81 D(14,7,13,18)   =    155.507048     0.000189    19.299953   174.807001
	 ---------------------------------------------------------------------------
	Successfully symmetrized geometry.

  ==> Convergence Check <==

  Measures of convergence in internal coordinates in au.
  Criteria marked as inactive (o), active & met (*), and active & unmet ( ).
  --------------------------------------------------------------------------------------------- ~
   Step     Total Energy     Delta E     MAX Force     RMS Force      MAX Disp      RMS Disp    ~
  --------------------------------------------------------------------------------------------- ~
    Convergence Criteria    1.00e-06 *    3.00e-04 *             o    1.20e-03 *             o  ~
  --------------------------------------------------------------------------------------------- ~
      1    -381.46071566   -3.81e+02      1.08e-02      2.30e-03 o    3.37e-01      5.47e-02 o  ~
  ---------------------------------------------------------------------------------------------

	Writing optimization data to binary file.
	Structure for next step:
	Cartesian Geometry (in Angstrom)
	    C    -0.1947220529  -0.0312284879   0.0487670971
	    C     0.8964679716   0.2422288195   0.8936418303
	    C     2.0918390157   0.7051751604   0.3497678514
	    C     2.1997614334   0.9184547826  -1.0270623228
	    C     1.1131463800   0.6608135786  -1.8688281037
	    C    -0.0803282112   0.1823102532  -1.3384947540
	    C    -1.4444109788  -0.5440352433   0.6306603024
	    H     0.8325240647   0.0406102799   1.9592922503
	    H     2.9407272034   0.8929637567   0.9994960846
	    H     3.1319054656   1.2860720375  -1.4456552890
	    H     1.1950418799   0.8396397313  -2.9361589333
	    H    -0.9284455070   0.0242567918  -1.9999927371
	    N    -2.1519423348  -1.4924427147   0.0086946251
	    N    -1.7936578849  -0.1593215538   1.8567614220
	    H    -2.5858158369  -0.5516972889   2.3526319566
	    H    -1.2681656301   0.5712707509   2.3325724585
	    H    -2.8292674649  -2.0678543341   0.4961091581
	    H    -1.9493136330  -1.7517593174  -0.9736366123
			--------------------------
			 OPTKING Finished Execution 
			--------------------------

    Structure for next step:
    Molecular point group: c1
    Full point group: C1

    Geometry (in Angstrom), charge = 1, multiplicity = 1:

    C           -0.180336697678    -0.045704821388     0.055586416305
    C            0.910853326825     0.227752485931     0.900461149442
    C            2.106224370936     0.690698826877     0.356587170609
    C            2.214146788576     0.903978449084    -1.020243003610
    C            1.127531735235     0.646337245070    -1.862008784504
    C           -0.065942855978     0.167833919652    -1.331675434870
    C           -1.430025623580    -0.558511576866     0.637479621592
    H            0.846909419866     0.026133946385     1.966111569519
    H            2.955112558603     0.878487423208     1.006315403815
    H            3.146290820771     1.271595704026    -1.438835969847
    H            1.209427235153     0.825163397744    -2.929339614143
    H           -0.914060151790     0.009780458318    -1.993173417905
    N           -2.137556979614    -1.506919048200     0.015513944309
    N           -1.779272529666    -0.173797887370     1.863580741132
    H           -2.571430481710    -0.566173622433     2.359451275740
    H           -1.253780274845     0.556794417396     2.339391777690
    H           -2.814882109700    -2.082330667573     0.502928477282
    H           -1.934928277772    -1.766235650917    -0.966817293113

gradient() will perform analytic gradient computation.

*** tstart() called on computer03
*** at Sat Aug 12 04:56:49 2017

   => Loading Basis Set <=

    Name: 6-31G*
    Role: ORBITAL
    Keyword: BASIS
    atoms 1-7         entry C          line   102 file /home/raimis/opt/miniconda3/envs/htmd/share/psi4/basis/6-31gs.gbs 
    atoms 8-12, 15-18 entry H          line    35 file /home/raimis/opt/miniconda3/envs/htmd/share/psi4/basis/6-31gs.gbs 
    atoms 13-14       entry N          line   119 file /home/raimis/opt/miniconda3/envs/htmd/share/psi4/basis/6-31gs.gbs 


         ---------------------------------------------------------
                                   SCF
            by Justin Turney, Rob Parrish, and Andy Simmonett
                              RKS Reference
                        8 Threads,   1907 MiB Core
         ---------------------------------------------------------

  ==> Geometry <==

    Molecular point group: c1
    Full point group: C1

    Geometry (in Angstrom), charge = 1, multiplicity = 1:

       Center              X                  Y                   Z               Mass       
    ------------   -----------------  -----------------  -----------------  -----------------
           C         -0.180336697678    -0.045704821388     0.055586416305    12.000000000000
           C          0.910853326825     0.227752485931     0.900461149442    12.000000000000
           C          2.106224370936     0.690698826877     0.356587170609    12.000000000000
           C          2.214146788576     0.903978449084    -1.020243003610    12.000000000000
           C          1.127531735235     0.646337245070    -1.862008784504    12.000000000000
           C         -0.065942855978     0.167833919652    -1.331675434870    12.000000000000
           C         -1.430025623580    -0.558511576866     0.637479621592    12.000000000000
           H          0.846909419866     0.026133946385     1.966111569519     1.007825032070
           H          2.955112558603     0.878487423208     1.006315403815     1.007825032070
           H          3.146290820771     1.271595704026    -1.438835969847     1.007825032070
           H          1.209427235153     0.825163397744    -2.929339614143     1.007825032070
           H         -0.914060151790     0.009780458318    -1.993173417905     1.007825032070
           N         -2.137556979614    -1.506919048200     0.015513944309    14.003074004780
           N         -1.779272529666    -0.173797887370     1.863580741132    14.003074004780
           H         -2.571430481710    -0.566173622433     2.359451275740     1.007825032070
           H         -1.253780274845     0.556794417396     2.339391777690     1.007825032070
           H         -2.814882109700    -2.082330667573     0.502928477282     1.007825032070
           H         -1.934928277772    -1.766235650917    -0.966817293113     1.007825032070

  Running in c1 symmetry.

  Rotational constants: A =      0.12169  B =      0.03948  C =      0.03116 [cm^-1]
  Rotational constants: A =   3648.27159  B =   1183.44995  C =    934.12729 [MHz]
  Nuclear repulsion =  416.340735506448596

  Charge       = 1
  Multiplicity = 1
  Electrons    = 64
  Nalpha       = 32
  Nbeta        = 32

  ==> Algorithm <==

  SCF Algorithm Type is DF.
  DIIS enabled.
  MOM disabled.
  Fractional occupation disabled.
  Guess Type is READ.
  Energy threshold   = 1.00e-08
  Density threshold  = 1.00e-08
  Integral threshold = 0.00e+00

  ==> Primary Basis <==

  Basis Set: 6-31G*
    Blend: 6-31G*
    Number of shells: 72
    Number of basis function: 153
    Number of Cartesian functions: 153
    Spherical Harmonics?: false
    Max angular momentum: 2

  ==> DFT Potential <==

   => B3LYP Composite Functional <= 

    B3LYP Hybrid-GGA Exchange-Correlation Functional (VWN1-RPA)

    P.J. Stephens et. al., J. Phys. Chem., 98, 11623-11627, 1994

    Points   =           5000
    Deriv    =              1
    GGA      =           TRUE
    Meta     =          FALSE

    X_LRC        =          FALSE
    X_Hybrid     =           TRUE
    X_Alpha      =   2.000000E-01
    X_Omega      =   0.000000E+00
    C_LRC        =          FALSE
    C_Hybrid     =          FALSE
    C_Alpha      =   0.000000E+00
    C_Omega      =   0.000000E+00

   => Exchange Functionals <=

    0.8000    B3_X
    0.2000      HF 

   => Correlation Functionals <=

    0.1900 VWN3RPA_C
    0.8100   LYP_C

   => Molecular Quadrature <=

    Radial Scheme    =       TREUTLER
    Pruning Scheme   =           FLAT
    Nuclear Scheme   =       TREUTLER

    BS radius alpha  =              1
    Pruning alpha    =              1
    Radial Points    =             75
    Spherical Points =            302
    Total Points     =         396881
    Total Blocks     =            339
    Max Points       =           4902
    Max Functions    =            149

   => -D3ZERO: Empirical Dispersion <=

    Grimme's -D3 (zero-damping) Dispersion Correction
    Grimme S.; Antony J.; Ehrlich S.; Krieg H. (2010), J. Chem. Phys., 132: 154104

        S6 =   1.000000E+00
        S8 =   1.703000E+00
       SR6 =   1.261000E+00
    ALPHA6 =   1.400000E+01

   => Loading Basis Set <=

    Name: (6-31G* AUX)
    Role: JKFIT
    Keyword: DF_BASIS_SCF
    atoms 1-7         entry C          line   120 file /home/raimis/opt/miniconda3/envs/htmd/share/psi4/basis/cc-pvdz-jkfit.gbs 
    atoms 8-12, 15-18 entry H          line    50 file /home/raimis/opt/miniconda3/envs/htmd/share/psi4/basis/cc-pvdz-jkfit.gbs 
    atoms 13-14       entry N          line   170 file /home/raimis/opt/miniconda3/envs/htmd/share/psi4/basis/cc-pvdz-jkfit.gbs 

  Reading orbitals from file 180, no projection.

  ==> Pre-Iterations <==

   -------------------------------------------------------
    Irrep   Nso     Nmo     Nalpha   Nbeta   Ndocc  Nsocc
   -------------------------------------------------------
     A        153     153       0       0       0       0
   -------------------------------------------------------
    Total     153     153      32      32      32       0
   -------------------------------------------------------

  ==> Integral Setup <==

  ==> DFJK: Density-Fitted J/K Matrices <==

    J tasked:                  Yes
    K tasked:                  Yes
    wK tasked:                  No
    OpenMP threads:              8
    Integrals threads:           8
    Memory (MB):              1430
    Algorithm:                Core
    Integral Cache:           NONE
    Schwarz Cutoff:          1E-12
    Fitting Condition:       1E-12

   => Auxiliary Basis Set <=

  Basis Set: (6-31G* AUX)
    Blend: CC-PVDZ-JKFIT
    Number of shells: 297
    Number of basis function: 954
    Number of Cartesian functions: 954
    Spherical Harmonics?: false
    Max angular momentum: 3

  Minimum eigenvalue in the overlap matrix is 4.8650880522E-04.
  Using Symmetric Orthogonalization.

  SCF Guess: Orbitals guess was supplied from a previous computation.

  ==> Iterations <==

                           Total Energy        Delta E     RMS |[F,P]|

   @DF-RKS iter   0:  -381.42900078569738   -3.81429e+02   1.86220e-03 
   @DF-RKS iter   1:  -381.46479025764273   -3.57895e-02   2.64847e-04 
   @DF-RKS iter   2:  -381.46470244870687    8.78089e-05   3.35743e-04 DIIS
   @DF-RKS iter   3:  -381.46505162520771   -3.49177e-04   1.01640e-04 DIIS
   @DF-RKS iter   4:  -381.46508242037072   -3.07952e-05   3.16438e-05 DIIS
   @DF-RKS iter   5:  -381.46508517031077   -2.74994e-06   9.07597e-06 DIIS
   @DF-RKS iter   6:  -381.46508538564058   -2.15330e-07   3.03439e-06 DIIS
   @DF-RKS iter   7:  -381.46508541111717   -2.54766e-08   6.95649e-07 DIIS
   @DF-RKS iter   8:  -381.46508541293042   -1.81325e-09   2.72592e-07 DIIS
   @DF-RKS iter   9:  -381.46508541318411   -2.53692e-10   4.10834e-08 DIIS
   @DF-RKS iter  10:  -381.46508541319133   -7.21911e-12   2.32950e-08 DIIS
   @DF-RKS iter  11:  -381.46508541319253   -1.19371e-12   8.06557e-09 DIIS

  ==> Post-Iterations <==

    Orbital Energies (a.u.)
    -----------------------

    Doubly Occupied:                                                      

       1A    -14.569734     2A    -14.568826     3A    -10.499989  
       4A    -10.375059     5A    -10.357069     6A    -10.356537  
       7A    -10.342135     8A    -10.340624     9A    -10.340426  
      10A     -1.181937    11A     -1.088927    12A     -1.014307  
      13A     -0.926413    14A     -0.902421    15A     -0.845000  
      16A     -0.783549    17A     -0.773898    18A     -0.739784  
      19A     -0.733386    20A     -0.683473    21A     -0.669250  
      22A     -0.628194    23A     -0.615627    24A     -0.590406  
      25A     -0.578121    26A     -0.574390    27A     -0.516866  
      28A     -0.506683    29A     -0.498529    30A     -0.470497  
      31A     -0.409949    32A     -0.405585  

    Virtual:                                                              

      33A     -0.217737    34A     -0.157610    35A     -0.134769  
      36A     -0.111725    37A     -0.073373    38A     -0.064090  
      39A     -0.038165    40A     -0.037727    41A      0.007068  
      42A      0.021310    43A      0.023712    44A      0.060569  
      45A      0.062542    46A      0.081911    47A      0.122377  
      48A      0.146846    49A      0.157048    50A      0.163662  
      51A      0.203490    52A      0.239496    53A      0.298983  
      54A      0.349588    55A      0.353145    56A      0.379447  
      57A      0.388146    58A      0.397617    59A      0.420448  
      60A      0.421903    61A      0.441703    62A      0.451170  
      63A      0.453930    64A      0.469082    65A      0.471409  
      66A      0.474662    67A      0.486050    68A      0.500938  
      69A      0.516803    70A      0.541281    71A      0.544193  
      72A      0.588687    73A      0.606945    74A      0.651668  
      75A      0.655762    76A      0.676786    77A      0.689211  
      78A      0.704176    79A      0.711745    80A      0.720198  
      81A      0.753010    82A      0.774738    83A      0.775448  
      84A      0.801829    85A      0.815837    86A      0.842418  
      87A      0.847634    88A      0.934055    89A      0.961900  
      90A      0.991520    91A      1.000728    92A      1.022368  
      93A      1.041791    94A      1.071298    95A      1.140576  
      96A      1.171831    97A      1.241583    98A      1.269544  
      99A      1.279372   100A      1.309315   101A      1.314821  
     102A      1.343287   103A      1.352087   104A      1.362614  
     105A      1.422048   106A      1.454002   107A      1.509398  
     108A      1.593278   109A      1.617266   110A      1.652763  
     111A      1.679789   112A      1.736284   113A      1.751011  
     114A      1.795623   115A      1.825488   116A      1.840776  
     117A      1.894183   118A      1.915126   119A      1.952141  
     120A      1.978002   121A      1.994955   122A      2.019919  
     123A      2.022020   124A      2.075386   125A      2.104033  
     126A      2.127189   127A      2.151063   128A      2.198506  
     129A      2.214753   130A      2.272441   131A      2.325686  
     132A      2.369104   133A      2.443880   134A      2.452113  
     135A      2.488091   136A      2.518709   137A      2.544292  
     138A      2.588728   139A      2.606224   140A      2.627542  
     141A      2.735649   142A      2.875521   143A      2.980712  
     144A      3.257420   145A      3.628319   146A      3.654349  
     147A      3.913082   148A      3.948675   149A      3.962736  
     150A      4.053467   151A      4.172959   152A      4.255350  
     153A      4.544538  

    Final Occupation by Irrep:
              A 
    DOCC [    32 ]

  Energy converged.

  @DF-RKS Final Energy:  -381.46508541319253

   => Energetics <=

    Nuclear Repulsion Energy =            416.3407355064485955
    One-Electron Energy =               -1327.8999201685119260
    Two-Electron Energy =                 574.4956733100160591
    DFT Exchange-Correlation Energy =     -44.3897462111452441
    Empirical Dispersion Energy =          -0.0118278500000000
    PCM Polarization Energy =               0.0000000000000000
    EFP Energy =                            0.0000000000000000
    Total Energy =                       -381.4650854131924689



Properties will be evaluated at   0.000000,   0.000000,   0.000000 Bohr

Properties computed using the SCF density matrix

  Nuclear Dipole Moment: (a.u.)
     X:    -1.2367      Y:    -0.7890      Z:     0.7877

  Electronic Dipole Moment: (a.u.)
     X:    -0.6321      Y:    -0.1131      Z:     0.1733

  Dipole Moment: (a.u.)
     X:    -1.8688      Y:    -0.9020      Z:     0.9609     Total:     2.2868

  Dipole Moment: (Debye)
     X:    -4.7501      Y:    -2.2928      Z:     2.4425     Total:     5.8126


*** tstop() called on computer03 at Sat Aug 12 04:57:38 2017
Module time:
	user time   =      78.60 seconds =       1.31 minutes
	system time =       1.17 seconds =       0.02 minutes
	total time  =         49 seconds =       0.82 minutes
Total time:
	user time   =     195.75 seconds =       3.26 minutes
	system time =       2.92 seconds =       0.05 minutes
	total time  =        116 seconds =       1.93 minutes

*** tstart() called on computer03
*** at Sat Aug 12 04:57:38 2017


         ------------------------------------------------------------
                                   SCF GRAD                          
                          Rob Parrish, Justin Turney,                
                       Andy Simmonett, and Alex Sokolov              
         ------------------------------------------------------------

  ==> Geometry <==

    Molecular point group: c1
    Full point group: C1

    Geometry (in Angstrom), charge = 1, multiplicity = 1:

       Center              X                  Y                   Z               Mass       
    ------------   -----------------  -----------------  -----------------  -----------------
           C         -0.180336697678    -0.045704821388     0.055586416305    12.000000000000
           C          0.910853326825     0.227752485931     0.900461149442    12.000000000000
           C          2.106224370936     0.690698826877     0.356587170609    12.000000000000
           C          2.214146788576     0.903978449084    -1.020243003610    12.000000000000
           C          1.127531735235     0.646337245070    -1.862008784504    12.000000000000
           C         -0.065942855978     0.167833919652    -1.331675434870    12.000000000000
           C         -1.430025623580    -0.558511576866     0.637479621592    12.000000000000
           H          0.846909419866     0.026133946385     1.966111569519     1.007825032070
           H          2.955112558603     0.878487423208     1.006315403815     1.007825032070
           H          3.146290820771     1.271595704026    -1.438835969847     1.007825032070
           H          1.209427235153     0.825163397744    -2.929339614143     1.007825032070
           H         -0.914060151790     0.009780458318    -1.993173417905     1.007825032070
           N         -2.137556979614    -1.506919048200     0.015513944309    14.003074004780
           N         -1.779272529666    -0.173797887370     1.863580741132    14.003074004780
           H         -2.571430481710    -0.566173622433     2.359451275740     1.007825032070
           H         -1.253780274845     0.556794417396     2.339391777690     1.007825032070
           H         -2.814882109700    -2.082330667573     0.502928477282     1.007825032070
           H         -1.934928277772    -1.766235650917    -0.966817293113     1.007825032070

  Nuclear repulsion =  416.340735506448596

  ==> Basis Set <==

  Basis Set: 6-31G*
    Blend: 6-31G*
    Number of shells: 72
    Number of basis function: 153
    Number of Cartesian functions: 153
    Spherical Harmonics?: false
    Max angular momentum: 2

  ==> DFJKGrad: Density-Fitted SCF Gradients <==

    Gradient:                    1
    J tasked:                  Yes
    K tasked:                  Yes
    wK tasked:                  No
    OpenMP threads:              8
    Integrals threads:           8
    Memory (MB):              1430
    Schwarz Cutoff:          0E+00
    Fitting Condition:       1E-12

   => Auxiliary Basis Set <=

  Basis Set: (6-31G* AUX)
    Blend: CC-PVDZ-JKFIT
    Number of shells: 297
    Number of basis function: 954
    Number of Cartesian functions: 954
    Spherical Harmonics?: false
    Max angular momentum: 3

  ==> DFT Potential <==

   => B3LYP Composite Functional <= 

    B3LYP Hybrid-GGA Exchange-Correlation Functional (VWN1-RPA)

    P.J. Stephens et. al., J. Phys. Chem., 98, 11623-11627, 1994

    Points   =           5000
    Deriv    =              1
    GGA      =           TRUE
    Meta     =          FALSE

    X_LRC        =          FALSE
    X_Hybrid     =           TRUE
    X_Alpha      =   2.000000E-01
    X_Omega      =   0.000000E+00
    C_LRC        =          FALSE
    C_Hybrid     =          FALSE
    C_Alpha      =   0.000000E+00
    C_Omega      =   0.000000E+00

   => Exchange Functionals <=

    0.8000    B3_X
    0.2000      HF 

   => Correlation Functionals <=

    0.1900 VWN3RPA_C
    0.8100   LYP_C

   => Molecular Quadrature <=

    Radial Scheme    =       TREUTLER
    Pruning Scheme   =           FLAT
    Nuclear Scheme   =       TREUTLER

    BS radius alpha  =              1
    Pruning alpha    =              1
    Radial Points    =             75
    Spherical Points =            302
    Total Points     =         396881
    Total Blocks     =            339
    Max Points       =           4902
    Max Functions    =            149


  -Total Gradient:
     Atom            X                  Y                   Z
    ------   -----------------  -----------------  -----------------
       1        0.004116927047    -0.006429376317     0.005903907466
       2       -0.000269088990     0.000178020336     0.000351939433
       3        0.000241335397     0.000000060989    -0.000115120544
       4       -0.000091952600    -0.000082000094     0.000082983024
       5       -0.000411715720     0.000167051853    -0.000193560020
       6        0.000706476979     0.000444827654    -0.000850081342
       7       -0.004503284844     0.011753459709    -0.006359162271
       8       -0.001110601100    -0.000010114920     0.000241145897
       9        0.000194408958     0.000063873625    -0.000025461845
      10        0.000194295463     0.000101372079    -0.000129861023
      11        0.000108991076     0.000017342128    -0.000126533748
      12        0.000319698555     0.000151320506    -0.000448325461
      13       -0.004660538387    -0.000663269055     0.017532675760
      14       -0.002425022034    -0.001738692179    -0.000708556119
      15        0.000207694155    -0.000533821229     0.000396844334
      16        0.003577197302     0.003738476272     0.003261464808
      17        0.004559277986    -0.004459216241     0.002244366561
      18       -0.000765580020    -0.002694608114    -0.021057054908


*** tstop() called on computer03 at Sat Aug 12 04:57:48 2017
Module time:
	user time   =      23.57 seconds =       0.39 minutes
	system time =       0.43 seconds =       0.01 minutes
	total time  =         10 seconds =       0.17 minutes
Total time:
	user time   =     219.41 seconds =       3.66 minutes
	system time =       3.35 seconds =       0.06 minutes
	total time  =        126 seconds =       2.10 minutes

			-----------------------------------------
			 OPTKING 2.0: for geometry optimizations 
			  - R.A. King,  Bethel University        
			-----------------------------------------
	At level 1: Red. Int., RFO, no backsteps, dynamic trust

	Previous internal coordinate definitions found.
	---Fragment 1 Geometry and Gradient---
	 C          -0.3407869703       -0.0863695954        0.1050431035
	 C           1.7212633349        0.4303898245        1.7016249657
	 C           3.9801872355        1.3052316231        0.6738520950
	 C           4.1841310484        1.7082716988       -1.9279798658
	 C           2.1307261857        1.2214003827       -3.5186866597
	 C          -0.1246139382        0.3171601440       -2.5165018698
	 C          -2.7023567916       -1.0554339223        1.2046619001
	 H           1.6004268629        0.0493860014        3.7154124131
	 H           5.5843534276        1.6601006410        1.9016605165
	 H           5.9456279857        2.4029676324       -2.7190059332
	 H           2.2854862521        1.5593328366       -5.5356496209
	 H          -1.7273233559        0.0184823877       -3.7665518952
	 N          -4.0393972849       -2.8476643055        0.0293171060
	 N          -3.3623377968       -0.3284304096        3.5216572273
	 H          -4.8592993802       -1.0699130901        4.4587167350
	 H          -2.3693013503        1.0521889612        4.4208097774
	 H          -5.3193562837       -3.9350346798        0.9503970865
	 H          -3.6564845318       -3.3377016664       -1.8270199045
	             0.0041169270       -0.0064293763        0.0059039075
	            -0.0002690890        0.0001780203        0.0003519394
	             0.0002413354        0.0000000610       -0.0001151205
	            -0.0000919526       -0.0000820001        0.0000829830
	            -0.0004117157        0.0001670519       -0.0001935600
	             0.0007064770        0.0004448277       -0.0008500813
	            -0.0045032848        0.0117534597       -0.0063591623
	            -0.0011106011       -0.0000101149        0.0002411459
	             0.0001944090        0.0000638736       -0.0000254618
	             0.0001942955        0.0001013721       -0.0001298610
	             0.0001089911        0.0000173421       -0.0001265337
	             0.0003196986        0.0001513205       -0.0004483255
	            -0.0046605384       -0.0006632691        0.0175326758
	            -0.0024250220       -0.0017386922       -0.0007085561
	             0.0002076942       -0.0005338212        0.0003968443
	             0.0035771973        0.0037384763        0.0032614648
	             0.0045592780       -0.0044592162        0.0022443666
	            -0.0007655800       -0.0026946081       -0.0210570549

	---Fragment 1 Intrafragment Coordinates---
	 - Coordinate -           - BOHR/RAD -       - ANG/DEG -
	 R(1,2)           =         2.658602	       1.406872
	 R(1,6)           =         2.661215	       1.408254
	 R(1,7)           =         2.779435	       1.470814
	 R(2,3)           =         2.631426	       1.392491
	 R(2,8)           =         2.053072	       1.086439
	 R(3,4)           =         2.640751	       1.397425
	 R(3,9)           =         2.051047	       1.085367
	 R(4,5)           =         2.642700	       1.398457
	 R(4,10)          =         2.052120	       1.085935
	 R(5,6)           =         2.628419	       1.390899
	 R(5,11)          =         2.050924	       1.085302
	 R(6,12)          =         2.054388	       1.087135
	 R(7,13)          =         2.526104	       1.336757
	 R(7,14)          =         2.516461	       1.331654
	 R(13,17)         =         1.915478	       1.013628
	 R(13,18)         =         1.957740	       1.035991
	 R(14,15)         =         1.915404	       1.013588
	 R(14,16)         =         1.923722	       1.017990
	 B(1,2,3)         =         2.089651	     119.728170
	 B(1,2,8)         =         2.102871	     120.485633
	 B(1,6,5)         =         2.091477	     119.832828
	 B(1,6,12)        =         2.110627	     120.930023
	 B(1,7,13)        =         2.109476	     120.864091
	 B(1,7,14)        =         2.078735	     119.102762
	 B(2,1,6)         =         2.093362	     119.940805
	 B(2,1,7)         =         2.081956	     119.287277
	 B(2,3,4)         =         2.096542	     120.123012
	 B(2,3,9)         =         2.088766	     119.677471
	 B(3,2,8)         =         2.089005	     119.691155
	 B(3,4,5)         =         2.100094	     120.326544
	 B(3,4,10)        =         2.091794	     119.850987
	 B(4,3,9)         =         2.097855	     120.198236
	 B(4,5,6)         =         2.095082	     120.039364
	 B(4,5,11)        =         2.097827	     120.196645
	 B(5,4,10)        =         2.091297	     119.822469
	 B(5,6,12)        =         2.079925	     119.170946
	 B(6,1,7)         =         2.107860	     120.771506
	 B(6,5,11)        =         2.090252	     119.762621
	 B(7,13,17)       =         2.132588	     122.188263
	 B(7,13,18)       =         2.112091	     121.013900
	 B(7,14,15)       =         2.145491	     122.927560
	 B(7,14,16)       =         2.097063	     120.152860
	 B(13,7,14)       =         2.088118	     119.640374
	 B(15,14,16)      =         2.040471	     116.910379
	 B(17,13,18)      =         2.031477	     116.395046
	 D(1,2,3,4)       =         0.018603	       1.065887
	 D(1,2,3,9)       =        -3.115818	    -178.523230
	 D(1,6,5,4)       =         0.009170	       0.525411
	 D(1,6,5,11)      =        -3.125008	    -179.049746
	*D(1,7,13,17)     =         2.792527	     160.000011
	 D(1,7,13,18)     =        -0.217314	     -12.451166
	 D(1,7,14,15)     =        -3.022295	    -173.164749
	 D(1,7,14,16)     =         0.139162	       7.973391
	 D(2,1,6,5)       =         0.002156	       0.123549
	 D(2,1,6,12)      =        -3.087365	    -176.893002
	 D(2,1,7,13)      =        -2.450511	    -140.403939
	 D(2,1,7,14)      =         0.565074	      32.376328
	 D(2,3,4,5)       =        -0.007332	      -0.420119
	 D(2,3,4,10)      =         3.134257	     179.579709
	 D(3,2,1,6)       =        -0.016047	      -0.919445
	 D(3,2,1,7)       =         3.121501	     178.848815
	 D(3,4,5,6)       =        -0.006679	      -0.382686
	 D(3,4,5,11)      =         3.127466	     179.190611
	 D(4,3,2,8)       =         3.098640	     177.538979
	 D(4,5,6,12)      =         3.099609	     177.594537
	 D(5,4,3,9)       =         3.127051	     179.166841
	 D(5,6,1,7)       =        -3.135331	    -179.641215
	 D(6,1,2,8)       =        -3.095587	    -177.364049
	 D(6,1,7,13)      =         0.687003	      39.362345
	 D(6,1,7,14)      =        -2.580598	    -147.857388
	 D(6,5,4,10)      =         3.134917	     179.617487
	 D(7,1,2,8)       =         0.041961	       2.404210
	 D(7,1,6,12)      =         0.058333	       3.342234
	 D(8,2,3,9)       =        -0.035782	      -2.050138
	 D(9,3,4,10)      =        -0.014544	      -0.833331
	 D(10,4,5,11)     =        -0.014123	      -0.809217
	 D(11,5,6,12)     =        -0.034568	      -1.980620
	 D(13,7,14,15)    =        -0.005142	      -0.294635
	 D(13,7,14,16)    =        -3.126871	    -179.156494
	 D(14,7,13,17)    =        -0.222387	     -12.741822
	 D(14,7,13,18)    =         3.050958	     174.807001

	Current energy   :      -381.4650854132

	Energy change for the previous step:
		Projected    :        -0.0035660968
		Actual       :        -0.0043697488
	Energy ratio indicates good step: Trust radius increased to 1.000e+00.


	Performing BFGS update.
	Previous computed or guess Hessian on step 1.
	Steps to be used in Hessian update: 1
	Taking RFO optimization step.
	Going to follow RFO solution 1.
	Using RFO vector 1.
	Norm of target step-size    0.37490
	Projected energy change by RFO approximation:        -0.0056232041

	Back-transformation to cartesian coordinates...
	Could not converge backtransformation.
	Using first guess instead.

	Back-transformation to cartesian coordinates to adjust frozen coordinates...
	Successfully converged to displaced geometry.

	--- Internal Coordinate Step in ANG or DEG, aJ/ANG or AJ/DEG ---
	 ---------------------------------------------------------------------------
	   Coordinate                Previous        Force       Change         New 
	   ----------                --------       ------       ------       ------
	    1 R(1,2)          =      1.406872     0.004883     0.000986     1.407857
	    2 R(1,6)          =      1.408254    -0.013119    -0.001519     1.406735
	    3 R(1,7)          =      1.470814     0.002760     0.001531     1.472345
	    4 R(2,3)          =      1.392491    -0.004203    -0.000156     1.392334
	    5 R(2,8)          =      1.086439    -0.002501     0.000063     1.086502
	    6 R(3,4)          =      1.397425    -0.001962    -0.000218     1.397207
	    7 R(3,9)          =      1.085367    -0.001221     0.000189     1.085557
	    8 R(4,5)          =      1.398457    -0.001941     0.000096     1.398552
	    9 R(4,10)         =      1.085935    -0.002073    -0.000237     1.085698
	   10 R(5,6)          =      1.390899     0.000149    -0.000021     1.390878
	   11 R(5,11)         =      1.085302    -0.001118     0.000019     1.085321
	   12 R(6,12)         =      1.087135    -0.000009     0.000441     1.087577
	   13 R(7,13)         =      1.336757    -0.054381    -0.003723     1.333034
	   14 R(7,14)         =      1.331654    -0.022916    -0.001251     1.330403
	   15 R(13,17)        =      1.013628    -0.004645     0.000377     1.014004
	   16 R(13,18)        =      1.035991    -0.168824     0.006484     1.042476
	   17 R(14,15)        =      1.013588    -0.001962     0.001299     1.014887
	   18 R(14,16)        =      1.017990    -0.049876    -0.005098     1.012892
	   19 B(1,2,3)        =    119.728170    -0.000013    -0.024673   119.703497
	   20 B(1,2,8)        =    120.485633     0.000086     0.392553   120.878187
	   21 B(1,6,5)        =    119.832828     0.000012     0.069160   119.901988
	   22 B(1,6,12)       =    120.930023    -0.000051    -0.107942   120.822081
	   23 B(1,7,13)       =    120.864091    -0.000256    -0.393215   120.470875
	   24 B(1,7,14)       =    119.102762     0.000342     0.935825   120.038587
	   25 B(2,1,6)        =    119.940805     0.000005    -0.034070   119.906735
	   26 B(2,1,7)        =    119.287277     0.000232     0.507047   119.794324
	   27 B(2,3,4)        =    120.123012     0.000007     0.044973   120.167984
	   28 B(2,3,9)        =    119.677471    -0.000015    -0.087553   119.589918
	   29 B(3,2,8)        =    119.691155    -0.000074    -0.392640   119.298514
	   30 B(3,4,5)        =    120.326544    -0.000012    -0.047615   120.278929
	   31 B(3,4,10)       =    119.850987     0.000003     0.007617   119.858603
	   32 B(4,3,9)        =    120.198236     0.000008     0.041123   120.239359
	   33 B(4,5,6)        =    120.039364     0.000000    -0.005023   120.034341
	   34 B(4,5,11)       =    120.196645     0.000007     0.038846   120.235491
	   35 B(5,4,10)       =    119.822469     0.000009     0.039662   119.862131
	   36 B(5,6,12)       =    119.170946     0.000039     0.040979   119.211925
	   37 B(6,1,7)        =    120.771506    -0.000237    -0.484100   120.287407
	   38 B(6,5,11)       =    119.762621    -0.000007    -0.034217   119.728404
	   39 B(7,13,17)      =    122.188263     0.000143     0.763445   122.951708
	   40 B(7,13,18)      =    121.013900    -0.000230    -2.998490   118.015410
	   41 B(7,14,15)      =    122.927560     0.000002     0.040842   122.968402
	   42 B(7,14,16)      =    120.152860    -0.000011     0.006936   120.159796
	   43 B(13,7,14)      =    119.640374    -0.000070    -0.246824   119.393550
	   44 B(15,14,16)     =    116.910379     0.000007    -0.114674   116.795705
	   45 B(17,13,18)     =    116.395046     0.000041    -1.103695   115.291351
	   46 D(1,2,3,4)      =      1.065887    -0.000002    -0.150306     0.915581
	   47 D(1,2,3,9)      =   -178.523230    -0.000000     0.039281  -178.483949
	   48 D(1,6,5,4)      =      0.525411    -0.000000     0.006769     0.532180
	   49 D(1,6,5,11)     =   -179.049746     0.000001     0.063898  -178.985848
	   50 *D(1,7,13,17)   =    160.000011    -0.000000    -0.000000   160.000011
	   51 D(1,7,13,18)    =    -12.451166     0.000097    15.292303     2.841137
	   52 D(1,7,14,15)    =   -173.164749    -0.000023    -3.680873  -176.845622
	   53 D(1,7,14,16)    =      7.973391    -0.000001    -1.543406     6.429985
	   54 D(2,1,6,5)      =      0.123549    -0.000002    -0.280288    -0.156739
	   55 D(2,1,6,12)     =   -176.893002    -0.000002    -0.331417  -177.224419
	   56 D(2,1,7,13)     =   -140.403939    -0.000007     0.164641  -140.239298
	   57 D(2,1,7,14)     =     32.376328     0.000025     3.782120    36.158448
	   58 D(2,3,4,5)      =     -0.420119    -0.000000    -0.124002    -0.544121
	   59 D(2,3,4,10)     =    179.579709     0.000001     0.087290   179.666999
	   60 D(3,2,1,6)      =     -0.919445     0.000003     0.352165    -0.567280
	   61 D(3,2,1,7)      =    178.848815    -0.000003    -0.647878   178.200937
	   62 D(3,4,5,6)      =     -0.382686     0.000001     0.196434    -0.186252
	   63 D(3,4,5,11)     =    179.190611     0.000001     0.138698   179.329308
	   64 D(4,3,2,8)      =    177.538979    -0.000004    -0.566865   176.972114
	   65 D(4,5,6,12)     =    177.594537    -0.000000     0.052592   177.647130
	   66 D(5,4,3,9)      =    179.166841    -0.000002    -0.315362   178.851479
	   67 D(5,6,1,7)      =   -179.641215     0.000004     0.722405  -178.918810
	   68 D(6,1,2,8)      =   -177.364049     0.000006     0.803846  -176.560203
	   69 D(6,1,7,13)     =     39.362345    -0.000012    -0.838179    38.524166
	   70 D(6,1,7,14)     =   -147.857388     0.000019     2.779300  -145.078088
	   71 D(6,5,4,10)     =    179.617487     0.000000    -0.014866   179.602621
	   72 D(7,1,2,8)      =      2.404210     0.000000    -0.196196     2.208014
	   73 D(7,1,6,12)     =      3.342234     0.000003     0.671276     4.013510
	   74 D(8,2,3,9)      =     -2.050138    -0.000002    -0.377278    -2.427416
	   75 D(9,3,4,10)     =     -0.833331    -0.000001    -0.104070    -0.937401
	   76 D(10,4,5,11)    =     -0.809217    -0.000001    -0.072602    -0.881819
	   77 D(11,5,6,12)    =     -1.980620     0.000001     0.109721    -1.870898
	   78 D(13,7,14,15)   =     -0.294635     0.000005    -0.114401    -0.409036
	   79 D(13,7,14,16)   =   -179.156494     0.000027     2.023066  -177.133429
	   80 D(14,7,13,17)   =    -12.741822    -0.000038    -3.679016   -16.420838
	   81 D(14,7,13,18)   =    174.807001     0.000059    11.613287   186.420287
	 ---------------------------------------------------------------------------
	Successfully symmetrized geometry.

  ==> Convergence Check <==

  Measures of convergence in internal coordinates in au.
  Criteria marked as inactive (o), active & met (*), and active & unmet ( ).
  ---------------------------------------------------------------------------------------------
   Step     Total Energy     Delta E     MAX Force     RMS Force      MAX Disp      RMS Disp   
  ---------------------------------------------------------------------------------------------
    Convergence Criteria    1.00e-06 *    3.00e-04 *             o    1.20e-03 *             o
  ---------------------------------------------------------------------------------------------
      2    -381.46508541   -4.37e-03      2.05e-02      2.80e-03 o    2.67e-01      4.08e-02 o  ~
  ---------------------------------------------------------------------------------------------

	Writing optimization data to binary file.
	Structure for next step:
	Cartesian Geometry (in Angstrom)
	    C    -0.1794575734  -0.0359746803   0.0696047956
	    C     0.9299622118   0.2105585411   0.9005509591
	    C     2.1211283750   0.6680287139   0.3433802883
	    C     2.2096708946   0.8998466495  -1.0316131069
	    C     1.1071702092   0.6635094807  -1.8590101407
	    C    -0.0829971556   0.1920379347  -1.3151732920
	    C    -1.4275215758  -0.5574724870   0.6511329027
	    H     0.8911387228  -0.0122822917   1.9632466382
	    H     2.9828673448   0.8339333658   0.9823758025
	    H     3.1393350963   1.2617208701  -1.4599964837
	    H     1.1733342306   0.8541393947  -2.9254078334
	    H    -0.9436164427   0.0495204917  -1.9646701009
	    N    -2.1382756981  -1.4831969440   0.0070509434
	    N    -1.8168491904  -0.1588236334   1.8592203428
	    H    -2.6432663357  -0.5238953775   2.3215545731
	    H    -1.3107292644   0.5746330875   2.3407122656
	    H    -2.8175063454  -2.0775110614   0.4692642520
	    H    -1.7601072300  -1.8538890553  -0.8909087764
			--------------------------
			 OPTKING Finished Execution 
			--------------------------

    Structure for next step:
    Molecular point group: c1
    Full point group: C1

    Geometry (in Angstrom), charge = 1, multiplicity = 1:

    C           -0.174939151397    -0.040867872199     0.068921614696
    C            0.934480633802     0.205665349217     0.899867778206
    C            2.125646797032     0.663135522001     0.342697107397
    C            2.214189316566     0.894953457675    -1.032296287819
    C            1.111688631226     0.658616288862    -1.859693321590
    C           -0.078478733594     0.187144742823    -1.315856472950
    C           -1.423003153751    -0.562365678876     0.650449721784
    H            0.895657144760    -0.017175483521     1.962563457324
    H            2.987385766847     0.829040173906     0.981692621573
    H            3.143853518258     1.256827678292    -1.460679664600
    H            1.177852652655     0.849246202879    -2.926091014305
    H           -0.939098020734     0.044627299846    -1.965353281826
    N           -2.133757276130    -1.488090135899     0.006367762497
    N           -1.812330768430    -0.163716825279     1.858537161896
    H           -2.638747913651    -0.528788569398     2.320871392155
    H           -1.306210842346     0.569739895671     2.340029084637
    H           -2.812987923381    -2.082404253213     0.468581071061
    H           -1.755588807991    -1.858782247146    -0.891591957356

gradient() will perform analytic gradient computation.

*** tstart() called on computer03
*** at Sat Aug 12 04:57:49 2017

   => Loading Basis Set <=

    Name: 6-31G*
    Role: ORBITAL
    Keyword: BASIS
    atoms 1-7         entry C          line   102 file /home/raimis/opt/miniconda3/envs/htmd/share/psi4/basis/6-31gs.gbs 
    atoms 8-12, 15-18 entry H          line    35 file /home/raimis/opt/miniconda3/envs/htmd/share/psi4/basis/6-31gs.gbs 
    atoms 13-14       entry N          line   119 file /home/raimis/opt/miniconda3/envs/htmd/share/psi4/basis/6-31gs.gbs 


         ---------------------------------------------------------
                                   SCF
            by Justin Turney, Rob Parrish, and Andy Simmonett
                              RKS Reference
                        8 Threads,   1907 MiB Core
         ---------------------------------------------------------

  ==> Geometry <==

    Molecular point group: c1
    Full point group: C1

    Geometry (in Angstrom), charge = 1, multiplicity = 1:

       Center              X                  Y                   Z               Mass       
    ------------   -----------------  -----------------  -----------------  -----------------
           C         -0.174939151397    -0.040867872199     0.068921614696    12.000000000000
[...]
	            -0.0000185397        0.0000133666       -0.0000082167
	            -0.0017828099        0.0035489513       -0.0026979389
	            -0.0000063236       -0.0000030684       -0.0000050689
	             0.0000002108       -0.0000026064       -0.0000024160
	            -0.0000003334       -0.0000000595        0.0000012389
	             0.0000013953       -0.0000029960       -0.0000002895
	             0.0000000903       -0.0000055488        0.0000047025
	            -0.0055157171        0.0047861337       -0.0003273095
	            -0.0000149593        0.0000155012       -0.0000209675
	             0.0000070322       -0.0000072841        0.0000050990
	             0.0000113026       -0.0000078925        0.0000065275
	             0.0048703807       -0.0048240648        0.0010019681
	             0.0000144564       -0.0000009629        0.0000246013

	---Fragment 1 Intrafragment Coordinates---
	 - Coordinate -           - BOHR/RAD -       - ANG/DEG -
	 R(1,2)           =         2.659162	       1.407168
	 R(1,6)           =         2.659913	       1.407565
	 R(1,7)           =         2.774578	       1.468244
	 R(2,3)           =         2.630011	       1.391742
	 R(2,8)           =         2.052804	       1.086297
	 R(3,4)           =         2.641514	       1.397829
	 R(3,9)           =         2.050653	       1.085159
	 R(4,5)           =         2.642456	       1.398327
	 R(4,10)          =         2.051507	       1.085611
	 R(5,6)           =         2.628936	       1.391173
	 R(5,11)          =         2.050619	       1.085141
	 R(6,12)          =         2.053429	       1.086628
	 R(7,13)          =         2.524723	       1.336026
	 R(7,14)          =         2.509670	       1.328060
	 R(13,17)         =         1.916840	       1.014348
	 R(13,18)         =         1.914097	       1.012896
	 R(14,15)         =         1.915278	       1.013521
	 R(14,16)         =         1.911938	       1.011754
	 B(1,2,3)         =         2.087640	     119.612968
	 B(1,2,8)         =         2.106425	     120.689275
	 B(1,6,5)         =         2.088829	     119.681093
	 B(1,6,12)        =         2.104224	     120.563173
	 B(1,7,13)        =         2.093652	     119.957418
	 B(1,7,14)        =         2.093697	     119.960018
	 B(2,1,6)         =         2.097034	     120.151170
	 B(2,1,7)         =         2.091177	     119.815620
	 B(2,3,4)         =         2.096484	     120.119669
	 B(2,3,9)         =         2.088341	     119.653145
	 B(3,2,8)         =         2.087599	     119.610615
	 B(3,4,5)         =         2.100895	     120.372409
	 B(3,4,10)        =         2.091067	     119.809287
	 B(4,3,9)         =         2.098319	     120.224843
	 B(4,5,6)         =         2.095412	     120.058260
	 B(4,5,11)        =         2.098337	     120.225870
	 B(5,4,10)        =         2.091224	     119.818303
	 B(5,6,12)        =         2.088878	     119.683889
	 B(6,1,7)         =         2.094946	     120.031572
	 B(6,5,11)        =         2.089385	     119.712926
	 B(7,13,17)       =         2.119256	     121.424397
	 B(7,13,18)       =         2.051704	     117.553967
	 B(7,14,15)       =         2.143393	     122.807369
	 B(7,14,16)       =         2.092791	     119.908089
	 B(13,7,14)       =         2.095361	     120.055343
	 B(15,14,16)      =         2.039473	     116.853200
	 B(17,13,18)      =         1.993785	     114.235438
	 D(1,2,3,4)       =         0.012672	       0.726052
	 D(1,2,3,9)       =        -3.119223	    -178.718325
	 D(1,6,5,4)       =         0.007520	       0.430850
	 D(1,6,5,11)      =        -3.123205	    -178.946466
	*D(1,7,13,17)     =         2.792527	     160.000011
	 D(1,7,13,18)     =         0.183758	      10.528569
	 D(1,7,14,15)     =        -3.081058	    -176.531638
	 D(1,7,14,16)     =         0.196294	      11.246818
	 D(2,1,6,5)       =        -0.000095	      -0.005465
	 D(2,1,6,12)      =        -3.087724	    -176.913558
	 D(2,1,7,13)      =        -2.505098	    -143.531556
	 D(2,1,7,14)      =         0.603395	      34.571967
	 D(2,3,4,5)       =        -0.005313	      -0.304398
	 D(2,3,4,10)      =         3.136379	     179.701298
	 D(3,2,1,6)       =        -0.010008	      -0.573416
	 D(3,2,1,7)       =         3.123462	     178.961219
	 D(3,4,5,6)       =        -0.004895	      -0.280469
	 D(3,4,5,11)      =         3.125773	     179.093624
	 D(4,3,2,8)       =         3.095441	     177.355714
	 D(4,5,6,12)      =         3.095627	     177.366379
	 D(5,4,3,9)       =         3.126527	     179.136777
	 D(5,6,1,7)       =        -3.133548	    -179.539089
	 D(6,1,2,8)       =        -3.092130	    -177.165976
	 D(6,1,7,13)      =         0.628382	      36.003642
	 D(6,1,7,14)      =        -2.546310	    -145.892836
	 D(6,5,4,10)      =         3.136598	     179.713834
	 D(7,1,2,8)       =         0.041341	       2.368659
	 D(7,1,6,12)      =         0.062008	       3.552818
	 D(8,2,3,9)       =        -0.036454	      -2.088663
	 D(9,3,4,10)      =        -0.014967	      -0.857527
	 D(10,4,5,11)     =        -0.015919	      -0.912073
	 D(11,5,6,12)     =        -0.035097	      -2.010938
	 D(13,7,14,15)    =         0.027402	       1.570010
	 D(13,7,14,16)    =        -2.978431	    -170.651533
	 D(14,7,13,17)    =        -0.315934	     -18.101687
	 D(14,7,13,18)    =        -2.924703	    -167.573130

	Current energy   :      -381.4679589430

	Energy change for the previous step:
		Projected    :        -0.0000000893
		Actual       :        -0.0000001383

	Performing BFGS update.
	Previous computed or guess Hessian on step 1.
	Steps to be used in Hessian update: 7 6
	Taking RFO optimization step.
	Going to follow RFO solution 1.
	Rejecting RFO root 1 because normalization gives large value.
	Rejecting RFO root 2 because normalization gives large value.
	Using RFO vector 3.
	Norm of target step-size    0.00223
	Projected energy change by RFO approximation:        -0.0000001725

	Back-transformation to cartesian coordinates...
	Successfully converged to displaced geometry.

	Back-transformation to cartesian coordinates to adjust frozen coordinates...
	Successfully converged to displaced geometry.

	--- Internal Coordinate Step in ANG or DEG, aJ/ANG or AJ/DEG ---
	 ---------------------------------------------------------------------------
	   Coordinate                Previous        Force       Change         New 
	   ----------                --------       ------       ------       ------
	    1 R(1,2)          =      1.407168     0.000019     0.000014     1.407182
	    2 R(1,6)          =      1.407565    -0.000006     0.000008     1.407574
	    3 R(1,7)          =      1.468244    -0.000107    -0.000055     1.468189
	    4 R(2,3)          =      1.391742    -0.000067    -0.000013     1.391729
	    5 R(2,8)          =      1.086297     0.000038     0.000010     1.086307
	    6 R(3,4)          =      1.397829     0.000020     0.000006     1.397835
	    7 R(3,9)          =      1.085159     0.000007     0.000003     1.085161
	    8 R(4,5)          =      1.398327     0.000006     0.000005     1.398333
	    9 R(4,10)         =      1.085611    -0.000004    -0.000001     1.085610
	   10 R(5,6)          =      1.391173    -0.000043    -0.000011     1.391162
	   11 R(5,11)         =      1.085141    -0.000003    -0.000000     1.085141
	   12 R(6,12)         =      1.086628     0.000024     0.000008     1.086636
	   13 R(7,13)         =      1.336026    -0.000116    -0.000001     1.336025
	   14 R(7,14)         =      1.328060     0.000074     0.000049     1.328109
	   15 R(13,17)        =      1.014348    -0.000030    -0.000002     1.014346
	   16 R(13,18)        =      1.012896     0.000117     0.000014     1.012910
	   17 R(14,15)        =      1.013521     0.000019     0.000009     1.013530
	   18 R(14,16)        =      1.011754    -0.000032     0.000002     1.011756
	   19 B(1,2,3)        =    119.612968     0.000000     0.001718   119.614686
	   20 B(1,2,8)        =    120.689275     0.000000     0.001297   120.690572
	   21 B(1,6,5)        =    119.681093     0.000001     0.003436   119.684528
	   22 B(1,6,12)       =    120.563173     0.000000     0.000508   120.563682
	   23 B(1,7,13)       =    119.957418    -0.000000     0.011180   119.968598
	   24 B(1,7,14)       =    119.960018     0.000001    -0.010233   119.949785
	   25 B(2,1,6)        =    120.151170    -0.000001    -0.004174   120.146996
	   26 B(2,1,7)        =    119.815620     0.000001     0.002778   119.818398
	   27 B(2,3,4)        =    120.119669     0.000000     0.001156   120.120825
	   28 B(2,3,9)        =    119.653145    -0.000000    -0.001784   119.651360
	   29 B(3,2,8)        =    119.610615    -0.000001    -0.002332   119.608283
	   30 B(3,4,5)        =    120.372409    -0.000000    -0.001557   120.370853
	   31 B(3,4,10)       =    119.809287     0.000000     0.001296   119.810584
	   32 B(4,3,9)        =    120.224843     0.000000     0.000691   120.225534
	   33 B(4,5,6)        =    120.058260    -0.000000    -0.000531   120.057729
	   34 B(4,5,11)       =    120.225870     0.000000     0.000279   120.226149
	   35 B(5,4,10)       =    119.818303     0.000000     0.000260   119.818563
	   36 B(5,6,12)       =    119.683889    -0.000001    -0.004256   119.679633
	   37 B(6,1,7)        =    120.031572     0.000000     0.001411   120.032983
	   38 B(6,5,11)       =    119.712926    -0.000000     0.000213   119.713139
	   39 B(7,13,17)      =    121.424397    -0.000000    -0.009857   121.414541
	   40 B(7,13,18)      =    117.553967     0.000002     0.008616   117.562583
	   41 B(7,14,15)      =    122.807369    -0.000000    -0.006790   122.800579
	   42 B(7,14,16)      =    119.908089     0.000000    -0.001126   119.906963
	   43 B(13,7,14)      =    120.055343    -0.000001    -0.000955   120.054388
	   44 B(15,14,16)     =    116.853200    -0.000000    -0.004095   116.849104
	   45 B(17,13,18)     =    114.235438    -0.000001    -0.006488   114.228950
	   46 D(1,2,3,4)      =      0.726052    -0.000000    -0.005510     0.720542
	   47 D(1,2,3,9)      =   -178.718325    -0.000000    -0.013036  -178.731361
	   48 D(1,6,5,4)      =      0.430850     0.000000     0.001941     0.432790
	   49 D(1,6,5,11)     =   -178.946466     0.000000     0.006084  -178.940383
	   50 *D(1,7,13,17)   =    160.000011     0.000000    -0.000000   160.000011
	   51 D(1,7,13,18)    =     10.528569    -0.000000     0.017741    10.546309
	   52 D(1,7,14,15)    =   -176.531638    -0.000000    -0.033159  -176.564798
	   53 D(1,7,14,16)    =     11.246818     0.000000     0.074154    11.320972
	   54 D(2,1,6,5)      =     -0.005465    -0.000000    -0.004696    -0.010162
	   55 D(2,1,6,12)     =   -176.913558     0.000000     0.002129  -176.911429
	   56 D(2,1,7,13)     =   -143.531556    -0.000000    -0.016700  -143.548255
	   57 D(2,1,7,14)     =     34.571967    -0.000000    -0.017007    34.554960
	   58 D(2,3,4,5)      =     -0.304398     0.000000     0.002814    -0.301584
	   59 D(2,3,4,10)     =    179.701298    -0.000000    -0.005427   179.695872
	   60 D(3,2,1,6)      =     -0.573416     0.000000     0.006482    -0.566935
	   61 D(3,2,1,7)      =    178.961219     0.000000     0.008620   178.969839
	   62 D(3,4,5,6)      =     -0.280469    -0.000000    -0.000992    -0.281461
	   63 D(3,4,5,11)     =    179.093624    -0.000000    -0.005157   179.088467
	   64 D(4,3,2,8)      =    177.355714     0.000000     0.007743   177.363457
	   65 D(4,5,6,12)     =    177.366379    -0.000000    -0.004678   177.361701
	   66 D(5,4,3,9)      =    179.136777     0.000000     0.010369   179.147147
	   67 D(5,6,1,7)      =   -179.539089    -0.000000    -0.006845  -179.545935
	   68 D(6,1,2,8)      =   -177.165976    -0.000000    -0.006793  -177.172770
	   69 D(6,1,7,13)     =     36.003642    -0.000000    -0.014590    35.989052
	   70 D(6,1,7,14)     =   -145.892836    -0.000000    -0.014898  -145.907733
	   71 D(6,5,4,10)     =    179.713834     0.000000     0.007249   179.721083
	   72 D(7,1,2,8)      =      2.368659     0.000000    -0.004655     2.364004
	   73 D(7,1,6,12)     =      3.552818     0.000000    -0.000020     3.552798
	   74 D(8,2,3,9)      =     -2.088663     0.000000     0.000217    -2.088446
	   75 D(9,3,4,10)     =     -0.857527     0.000000     0.002129    -0.855398
	   76 D(10,4,5,11)    =     -0.912073    -0.000000     0.003084    -0.908989
	   77 D(11,5,6,12)    =     -2.010938    -0.000000    -0.000534    -2.011472
	   78 D(13,7,14,15)   =      1.570010    -0.000000    -0.033235     1.536775
	   79 D(13,7,14,16)   =   -170.651533     0.000000     0.074079  -170.577454
	   80 D(14,7,13,17)   =    -18.101687    -0.000000     0.000485   -18.101202
	   81 D(14,7,13,18)   =   -167.573130    -0.000000     0.018226  -167.554904
	 ---------------------------------------------------------------------------
	Successfully symmetrized geometry.

  ==> Convergence Check <==

  Measures of convergence in internal coordinates in au.
  Criteria marked as inactive (o), active & met (*), and active & unmet ( ).
  ---------------------------------------------------------------------------------------------
   Step     Total Energy     Delta E     MAX Force     RMS Force      MAX Disp      RMS Disp   
  ---------------------------------------------------------------------------------------------
    Convergence Criteria    1.00e-06 *    3.00e-04 *             o    1.20e-03 *             o
  ---------------------------------------------------------------------------------------------
      8    -381.46795894   -1.38e-07 *    2.29e-05 *    6.83e-06 o    1.29e-03      2.48e-04 o  ~
  ---------------------------------------------------------------------------------------------


  **** Optimization is complete! (in 8 steps) ****

  ==> Optimization Summary <==

  Measures of convergence in internal coordinates in au.
  --------------------------------------------------------------------------------------------------------------- ~
   Step         Total Energy             Delta E       MAX Force       RMS Force        MAX Disp        RMS Disp  ~
  --------------------------------------------------------------------------------------------------------------- ~
      1    -381.460715664397   -381.460715664397      0.01082820      0.00229857      0.33684772      0.05474004  ~
      2    -381.465085413193     -0.004369748795      0.02049159      0.00279980      0.26690103      0.04076828  ~
      3    -381.466798861175     -0.001713447983      0.02421782      0.00281027      0.12975777      0.02241115  ~
      4    -381.467854712547     -0.001055851372      0.00506270      0.00071597      0.04089449      0.00758402  ~
      5    -381.467941840558     -0.000087128011      0.00230724      0.00029771      0.01423853      0.00358905  ~
      6    -381.467957356691     -0.000015516133      0.00019492      0.00005237      0.00748646      0.00134615  ~
      7    -381.467958804663     -0.000001447973      0.00007330      0.00001537      0.00162489      0.00039378  ~
      8    -381.467958942957     -0.000000138294      0.00002292      0.00000683      0.00129424      0.00024775  ~
  --------------------------------------------------------------------------------------------------------------- ~

	Writing optimization data to binary file.
	Final energy is   -381.4679589429575
	Final (previous) structure:
	Cartesian Geometry (in Angstrom)
	    C    -0.1699185064  -0.0524290555   0.0728042297
	    C     0.9365161692   0.2013479709   0.9043819437
	    C     2.1230493090   0.6684942113   0.3468345966
	    C     2.2087060181   0.8982231915  -1.0293242167
	    C     1.1078108290   0.6552609846  -1.8565597787
	    C    -0.0800218232   0.1766750934  -1.3130783450
	    C    -1.4165456363  -0.5670289880   0.6531896367
	    H     0.8920249067  -0.0153975153   1.9679060832
	    H     2.9831654207   0.8445432334   0.9846247282
	    H     3.1352101184   1.2672591782  -1.4582214986
	    H     1.1722640191   0.8483398256  -2.9224383895
	    H    -0.9449175616   0.0307148679  -1.9544919159
	    N    -2.1528854193  -1.4517322934  -0.0250946204
	    N    -1.7915641371  -0.1813780409   1.8674292674
	    H    -2.6156466707  -0.5477635655   2.3298954025
	    H    -1.3169735456   0.5882981117   2.3213112668
	    H    -2.8328409290  -2.0422714233   0.4416238460
	    H    -1.7430790256  -1.8647067624  -0.8542327666
	Saving final (previous) structure.
			--------------------------
			 OPTKING Finished Execution 
			--------------------------

    Final optimized geometry and variables:
    Molecular point group: c1
    Full point group: C1

    Geometry (in Angstrom), charge = 1, multiplicity = 1:

    C           -0.169918506425    -0.052429055457     0.072804229699
    C            0.936516169165     0.201347970903     0.904381943731
    C            2.123049309022     0.668494211291     0.346834596553
    C            2.208706018116     0.898223191485    -1.029324216724
    C            1.107810828971     0.655260984604    -1.856559778699
    C           -0.080021823216     0.176675093379    -1.313078344952
    C           -1.416545636340    -0.567028988011     0.653189636662
    H            0.892024906699    -0.015397515299     1.967906083228
    H            2.983165420705     0.844543233383     0.984624728203
    H            3.135210118353     1.267259178192    -1.458221498576
    H            1.172264019107     0.848339825576    -2.922438389506
    H           -0.944917561586     0.030714867869    -1.954491915862
    N           -2.152885419266    -1.451732293434    -0.025094620410
    N           -1.791564137084    -0.181378040909     1.867429267368
    H           -2.615646670748    -0.547763565510     2.329895402488
    H           -1.316973545641     0.588298111711     2.321311266844
    H           -2.832840929000    -2.042271423283     0.441623846034
    H           -1.743079025625    -1.864706762430    -0.854232766589

	Cleaning optimization helper files.


Properties will be evaluated at   0.000000,   0.000000,   0.000000 Bohr

Properties computed using the  density matrix

  Nuclear Dipole Moment: (a.u.)
     X:    -1.1799      Y:    -0.8305      Z:     0.7971

  Electronic Dipole Moment: (a.u.)
     X:    -0.5941      Y:    -0.1020      Z:     0.2324

  Dipole Moment: (a.u.)
     X:    -1.7739      Y:    -0.9326      Z:     1.0295     Total:     2.2531

  Dipole Moment: (Debye)
     X:    -4.5089      Y:    -2.3703      Z:     2.6168     Total:     5.7268

  Quadrupole Moment: (Debye Ang)
    XX:   -25.3584     YY:   -43.7498     ZZ:   -32.0492
    XY:    13.6434     XZ:   -10.0278     YZ:    -0.5548

  Traceless Quadrupole Moment: (Debye Ang)
    XX:     8.3607     YY:   -10.0306     ZZ:     1.6699
    XY:    13.6434     XZ:   -10.0278     YZ:    -0.5548

  Mulliken Charges: (a.u.)
   Center  Symbol    Alpha    Beta     Spin     Total
       1     C     2.95576  2.95576  0.00000  0.08849
       2     C     3.08286  3.08286  0.00000 -0.16573
       3     C     3.06246  3.06246  0.00000 -0.12492
       4     C     3.05162  3.05162  0.00000 -0.10325
       5     C     3.06234  3.06234  0.00000 -0.12468
       6     C     3.08439  3.08439  0.00000 -0.16877
       7     C     2.72887  2.72887  0.00000  0.54225
       8     H     0.41491  0.41491  0.00000  0.17018
       9     H     0.40539  0.40539  0.00000  0.18921
      10     H     0.40384  0.40384  0.00000  0.19231
      11     H     0.40518  0.40518  0.00000  0.18964
      12     H     0.41207  0.41207  0.00000  0.17586
      13     N     3.85811  3.85811  0.00000 -0.71622
      14     N     3.86038  3.86038  0.00000 -0.72076
      15     H     0.30472  0.30472  0.00000  0.39056
      16     H     0.29893  0.29893  0.00000  0.40214
      17     H     0.30625  0.30625  0.00000  0.38750
      18     H     0.30191  0.30191  0.00000  0.39619

   Total alpha = 32.00000, Total beta = 32.00000, Total charge =  1.00000


*** Psi4 exiting successfully. Buy a developer a beer!
