    -----------------------------------------------------------------------
          Psi4: An Open-Source Ab Initio Electronic Structure Package
                              Psi4 (no tag) Driver

                          Git: Rev {detached?}  

    J. M. Turney, A. C. Simmonett, R. M. Parrish, E. G. Hohenstein,
    F. A. Evangelista, J. T. Fermann, B. J. Mintz, L. A. Burns, J. J. Wilke,
    M. L. Abrams, N. J. Russ, M. L. Leininger, C. L. Janssen, E. T. Seidl,
    W. D. Allen, H. F. Schaefer, R. A. King, E. F. Valeev, C. D. Sherrill,
    and T. D. Crawford, WIREs Comput. Mol. Sci. 2, 556-565 (2012)
    (doi: 10.1002/wcms.93)

                         Additional Contributions by
    A. E. DePrince, M. Saitow, U. Bozkaya, A. Yu. Sokolov
    -----------------------------------------------------------------------


    Psi4 started on: Tue Jul  5 16:28:32 2016

    Process ID:   4915
    PSI4DATADIR: /export131/home/mjharvey/miniconda3/share
    Memory level set to 256.000 MB

  ==> Input File <==

--------------------------------------------------------------------------
set {
	reference rhf
	basis 6-31G*
}


set_num_threads( 1 )
memory 2 gb

molecule MOL {
0 1

H	 -2.499100	 -0.730091	 -0.745082
O	 -2.347518	 -0.290803	 0.079804
C	 -1.184022	 0.487508	 -0.006784
C	 0.062599	 -0.378592	 0.031606
H	 -1.176523	 1.099369	 -0.904519
H	 -1.187323	 1.153111	 0.844927
O	 0.449604	 -0.634037	 -1.281693
H	 -0.145749	 -1.311874	 0.558441
H	 0.848725	 0.136765	 0.580239
C	 1.608145	 -1.396876	 -1.404176
H	 1.489283	 -2.377188	 -0.946477
H	 1.805183	 -1.524569	 -2.459531
H	 2.460267	 -0.901741	 -0.943177

	symmetry c1
}
set optking {
	frozen_dihedral = ("
		1 2 3 5,
		10 7 4 8,
		4 7 10 13
	")
}

ee = energy('scf')
oeprop('DIPOLE', 'QUADRUPOLE', 'MULLIKEN_CHARGES')
f=open( 'psi4out.xyz', 'w' )
f.write( "13  " )
f.write( str(ee) + "\n" )
f.write( MOL.save_string_xyz() )
f.close()
--------------------------------------------------------------------------

  Memory set to   2.000 GiB by Python script.

*** tstart() called on cx1-49-4-2.cx1.hpc.ic.ac.uk
*** at Tue Jul  5 16:28:32 2016


         ---------------------------------------------------------
                                   SCF
            by Justin Turney, Rob Parrish, and Andy Simmonett
                              RHF Reference
                        1 Threads,   2000 MiB Core
         ---------------------------------------------------------

  ==> Geometry <==

    Molecular point group: c1
    Full point group: C1

    Geometry (in Angstrom), charge = 0, multiplicity = 1:

       Center              X                  Y                   Z               Mass       
    ------------   -----------------  -----------------  -----------------  -----------------
           H         -2.197872722113    -0.273309472889    -0.221456941528     1.007825032070
           O         -2.046290722113     0.165978527111     0.603429058472    15.994914619560
           C         -0.882794722113     0.944289527111     0.516841058472    12.000000000000
           C          0.363826277887     0.078189527111     0.555231058472    12.000000000000
           H         -0.875295722113     1.556150527111    -0.380893941528     1.007825032070
           H         -0.886095722113     1.609892527111     1.368552058472     1.007825032070
           O          0.750831277887    -0.177255472889    -0.758067941528    15.994914619560
           H          0.155478277887    -0.855092472889     1.082066058472     1.007825032070
           H          1.149952277887     0.593546527111     1.103864058472     1.007825032070
           C          1.909372277887    -0.940094472889    -0.880550941528    12.000000000000
           H          1.790510277887    -1.920406472889    -0.422851941528     1.007825032070
           H          2.106410277887    -1.067787472889    -1.935905941528     1.007825032070
           H          2.761494277887    -0.444959472889    -0.419551941528     1.007825032070

  Running in c1 symmetry.

  Rotational constants: A =      0.52238  B =      0.08149  C =      0.07823 [cm^-1]
  Rotational constants: A =  15660.52229  B =   2443.04900  C =   2345.15073 [MHz]
  Nuclear repulsion =  192.354266843876928

  Charge       = 0
  Multiplicity = 1
  Electrons    = 42
  Nalpha       = 21
  Nbeta        = 21

  ==> Algorithm <==

  SCF Algorithm Type is DF.
  DIIS enabled.
  MOM disabled.
  Fractional occupation disabled.
  Guess Type is CORE.
  Energy threshold   = 1.00e-06
  Density threshold  = 1.00e-06
  Integral threshold = 0.00e+00

  ==> Primary Basis <==

  Basis Set: 6-31G*
    Number of shells: 46
    Number of basis function: 91
    Number of Cartesian functions: 91
    Spherical Harmonics?: false
    Max angular momentum: 2

  ==> Pre-Iterations <==

   -------------------------------------------------------
    Irrep   Nso     Nmo     Nalpha   Nbeta   Ndocc  Nsocc
   -------------------------------------------------------
     A         91      91       0       0       0       0
   -------------------------------------------------------
    Total      91      91      21      21      21       0
   -------------------------------------------------------

 OEINTS: Overlap, kinetic, potential, dipole, and quadrupole integrals
         stored in file 35.

  ==> Integral Setup <==

  ==> DFJK: Density-Fitted J/K Matrices <==

    J tasked:                  Yes
    K tasked:                  Yes
    wK tasked:                  No
    OpenMP threads:              1
    Integrals threads:           1
    Memory (MB):              1430
    Algorithm:                Core
    Integral Cache:           NONE
    Schwarz Cutoff:          1E-12
    Fitting Condition:       1E-12

   => Auxiliary Basis Set <=

  Basis Set: 
    Number of shells: 192
    Number of basis function: 605
    Number of Cartesian functions: 605
    Spherical Harmonics?: false
    Max angular momentum: 3

  Minimum eigenvalue in the overlap matrix is 4.5036526461E-03.
  Using Symmetric Orthogonalization.
  SCF Guess: Core (One-Electron) Hamiltonian.

  ==> Iterations <==

                           Total Energy        Delta E     RMS |[F,P]|

   @DF-RHF iter   1:  -224.33801216744928   -2.24338e+02   7.85951e-02 
   @DF-RHF iter   2:  -168.28104848408287    5.60570e+01   6.69762e-02 DIIS
   @DF-RHF iter   3:  -227.95209131987684   -5.96710e+01   6.76667e-02 DIIS
   @DF-RHF iter   4:  -256.43484390194618   -2.84828e+01   3.90498e-02 DIIS
   @DF-RHF iter   5:  -267.54407744813460   -1.11092e+01   9.70548e-03 DIIS
   @DF-RHF iter   6:  -267.88239137691181   -3.38314e-01   4.00840e-03 DIIS
   @DF-RHF iter   7:  -267.94029720259846   -5.79058e-02   1.30338e-03 DIIS
   @DF-RHF iter   8:  -267.94699109823046   -6.69390e-03   5.28543e-04 DIIS
   @DF-RHF iter   9:  -267.94829804029894   -1.30694e-03   1.99863e-04 DIIS
   @DF-RHF iter  10:  -267.94850697593375   -2.08936e-04   5.92847e-05 DIIS
   @DF-RHF iter  11:  -267.94852918896720   -2.22130e-05   2.01081e-05 DIIS
   @DF-RHF iter  12:  -267.94853135220285   -2.16324e-06   3.99720e-06 DIIS
   @DF-RHF iter  13:  -267.94853147680919   -1.24606e-07   7.47578e-07 DIIS

  ==> Post-Iterations <==

    Orbital Energies (a.u.)
    -----------------------

    Doubly Occupied:                                                      

       1A    -20.562569     2A    -20.552165     3A    -11.270350  
       4A    -11.268668     5A    -11.267670     6A     -1.390290  
       7A     -1.357712     8A     -1.018358     9A     -0.917034  
      10A     -0.837263    11A     -0.704987    12A     -0.678499  
      13A     -0.657476    14A     -0.635958    15A     -0.597538  
      16A     -0.564887    17A     -0.537879    18A     -0.489468  
      19A     -0.486666    20A     -0.435555    21A     -0.420157  

    Virtual:                                                              

      22A      0.234858    23A      0.242410    24A      0.277837  
      25A      0.298328    26A      0.311950    27A      0.318495  
      28A      0.330915    29A      0.341455    30A      0.366001  
      31A      0.407635    32A      0.431879    33A      0.469305  
      34A      0.730074    35A      0.754182    36A      0.768144  
      37A      0.798429    38A      0.825182    39A      0.865944  
      40A      0.899767    41A      0.917151    42A      0.987954  
      43A      1.069566    44A      1.101833    45A      1.108842  
      46A      1.143454    47A      1.154667    48A      1.161381  
      49A      1.188077    50A      1.202213    51A      1.219867  
      52A      1.230110    53A      1.287970    54A      1.308134  
      55A      1.360784    56A      1.420128    57A      1.476585  
      58A      1.546719    59A      1.658739    60A      1.687061  
      61A      1.747896    62A      1.760806    63A      1.878074  
      64A      1.962709    65A      2.012707    66A      2.039274  
      67A      2.127574    68A      2.215346    69A      2.276970  
      70A      2.378505    71A      2.387061    72A      2.447701  
      73A      2.476929    74A      2.492437    75A      2.525878  
      76A      2.601544    77A      2.630695    78A      2.711157  
      79A      2.754538    80A      2.827957    81A      2.897198  
      82A      2.937243    83A      3.041841    84A      3.183710  
      85A      3.219728    86A      3.330680    87A      4.166804  
      88A      4.398097    89A      4.626426    90A      4.689238  
      91A      4.888284  

    Final Occupation by Irrep:
              A 
    DOCC [    21 ]

  Energy converged.

  @DF-RHF Final Energy:  -267.94853147680919

   => Energetics <=

    Nuclear Repulsion Energy =            192.3542668438769283
    One-Electron Energy =                -747.3032025953057200
    Two-Electron Energy =                 287.0004042746199957
    DFT Exchange-Correlation Energy =       0.0000000000000000
    Empirical Dispersion Energy =           0.0000000000000000
    PCM Polarization Energy =               0.0000000000000000
    EFP Energy =                            0.0000000000000000
    Total Energy =                       -267.9485314768087392

    Alert: EFP and PCM quantities not currently incorporated into SCF psivars.

Properties will be evaluated at   0.000000,   0.000000,   0.000000 Bohr
  ==> Properties <==


Properties computed using the SCF density matrix

  Nuclear Dipole Moment: (a.u.)
     X:     3.7479      Y:    -0.7519      Z:     0.1622

  Electronic Dipole Moment: (a.u.)
     X:    -3.0365      Y:     0.5889      Z:    -0.3422

  Dipole Moment: (a.u.)
     X:     0.7115      Y:    -0.1630      Z:    -0.1799     Total:     0.7518

  Dipole Moment: (Debye)
     X:     1.8084      Y:    -0.4142      Z:    -0.4574     Total:     1.9108


  Saving occupied orbitals to File 180.

*** tstop() called on cx1-49-4-2.cx1.hpc.ic.ac.uk at Tue Jul  5 16:28:38 2016
Module time:
	user time   =       5.79 seconds =       0.10 minutes
	system time =       0.05 seconds =       0.00 minutes
	total time  =          6 seconds =       0.10 minutes
Total time:
	user time   =       5.79 seconds =       0.10 minutes
	system time =       0.05 seconds =       0.00 minutes
	total time  =          6 seconds =       0.10 minutes


Properties will be evaluated at   0.000000,   0.000000,   0.000000 Bohr

Properties computed using the  density matrix

  Nuclear Dipole Moment: (a.u.)
     X:     3.7479      Y:    -0.7519      Z:     0.1622

  Electronic Dipole Moment: (a.u.)
     X:    -3.0365      Y:     0.5889      Z:    -0.3422

  Dipole Moment: (a.u.)
     X:     0.7115      Y:    -0.1630      Z:    -0.1799     Total:     0.7518

  Dipole Moment: (Debye)
     X:     1.8084      Y:    -0.4142      Z:    -0.4574     Total:     1.9108

  Quadrupole Moment: (Debye Ang)
    XX:   -32.4231     YY:   -29.6748     ZZ:   -32.0754
    XY:    -0.4927     XZ:     3.6231     YZ:     1.5061

  Traceless Quadrupole Moment: (Debye Ang)
    XX:    -1.0320     YY:     1.7163     ZZ:    -0.6842
    XY:    -0.4927     XZ:     3.6231     YZ:     1.5061

  Mulliken Charges: (a.u.)
   Center  Symbol    Alpha    Beta     Spin     Total
       1     H     0.27876  0.27876  0.00000  0.44248
       2     O     4.37115  4.37115  0.00000 -0.74231
       3     C     3.00501  3.00501  0.00000 -0.01001
       4     C     3.00520  3.00520  0.00000 -0.01040
       5     H     0.41606  0.41606  0.00000  0.16787
       6     H     0.41573  0.41573  0.00000  0.16853
       7     O     4.30806  4.30806  0.00000 -0.61612
       8     H     0.41968  0.41968  0.00000  0.16064
       9     H     0.43165  0.43165  0.00000  0.13670
      10     C     3.08051  3.08051  0.00000 -0.16102
      11     H     0.42837  0.42837  0.00000  0.14326
      12     H     0.41147  0.41147  0.00000  0.17706
      13     H     0.42834  0.42834  0.00000  0.14332

   Total alpha = 21.00000, Total beta = 21.00000, Total charge =  0.00000


*** PSI4 exiting successfully. Buy a developer a beer!
