    -----------------------------------------------------------------------
          Psi4: An Open-Source Ab Initio Electronic Structure Package
                              Psi4 (no tag) Driver

                          Git: Rev {detached?}  

    J. M. Turney, A. C. Simmonett, R. M. Parrish, E. G. Hohenstein,
    F. A. Evangelista, J. T. Fermann, B. J. Mintz, L. A. Burns, J. J. Wilke,
    M. L. Abrams, N. J. Russ, M. L. Leininger, C. L. Janssen, E. T. Seidl,
    W. D. Allen, H. F. Schaefer, R. A. King, E. F. Valeev, C. D. Sherrill,
    and T. D. Crawford, WIREs Comput. Mol. Sci. 2, 556-565 (2012)
    (doi: 10.1002/wcms.93)

                         Additional Contributions by
    A. E. DePrince, M. Saitow, U. Bozkaya, A. Yu. Sokolov
    -----------------------------------------------------------------------


    Psi4 started on: Tue Jul  5 16:27:27 2016

    Process ID:  27162
    PSI4DATADIR: /export131/home/mjharvey/miniconda3/share
    Memory level set to 256.000 MB

  ==> Input File <==

--------------------------------------------------------------------------
set {
	reference rhf
	basis 6-31G*
}


set_num_threads( 1 )
memory 2 gb

molecule MOL {
0 1

H	 0.412265	 -1.169615	 -1.116636
C	 0.481917	 -0.114878	 -1.410546
C	 0.065331	 0.871482	 -0.349150
O	 0.867612	 0.178348	 -2.495431
C	 -1.339775	 0.583656	 0.198860
H	 0.131634	 1.870108	 -0.765398
H	 0.788834	 0.797156	 0.461517
C	 -1.808407	 -0.848507	 -0.061364
H	 -2.036183	 1.280685	 -0.256307
H	 -1.360094	 0.788874	 1.267089
H	 -1.828843	 -1.063152	 -1.125336
H	 -2.808409	 -1.004529	 0.329750
H	 -1.153967	 -1.577789	 0.406873

	symmetry c1
}
set optking {
	frozen_dihedral = ("
		6 3 2 4
	")
}

ee = energy('scf')
oeprop('DIPOLE', 'QUADRUPOLE', 'MULLIKEN_CHARGES')
f=open( 'psi4out.xyz', 'w' )
f.write( "13  " )
f.write( str(ee) + "\n" )
f.write( MOL.save_string_xyz() )
f.close()
--------------------------------------------------------------------------

  Memory set to   2.000 GiB by Python script.

*** tstart() called on cx1-3-1-3.cx1.hpc.ic.ac.uk
*** at Tue Jul  5 16:27:28 2016


         ---------------------------------------------------------
                                   SCF
            by Justin Turney, Rob Parrish, and Andy Simmonett
                              RHF Reference
                        1 Threads,   2000 MiB Core
         ---------------------------------------------------------

  ==> Geometry <==

    Molecular point group: c1
    Full point group: C1

    Geometry (in Angstrom), charge = 0, multiplicity = 1:

       Center              X                  Y                   Z               Mass       
    ------------   -----------------  -----------------  -----------------  -----------------
           H          0.762680289132    -1.290002479985    -0.281396236754     1.007825032070
           C          0.832332289132    -0.235265479985    -0.575306236754    12.000000000000
           C          0.415746289132     0.751094520015     0.486089763246    12.000000000000
           O          1.218027289132     0.057960520015    -1.660191236754    15.994914619560
           C         -0.989359710868     0.463268520015     1.034099763246    12.000000000000
           H          0.482049289132     1.749720520015     0.069841763246     1.007825032070
           H          1.139249289132     0.676768520015     1.296756763246     1.007825032070
           C         -1.457991710868    -0.968894479985     0.773875763246    12.000000000000
           H         -1.685767710868     1.160297520015     0.578932763246     1.007825032070
           H         -1.009678710868     0.668486520015     2.102328763246     1.007825032070
           H         -1.478427710868    -1.183539479985    -0.290096236754     1.007825032070
           H         -2.457993710868    -1.124916479985     1.164989763246     1.007825032070
           H         -0.803551710868    -1.698176479985     1.242112763246     1.007825032070

  Running in c1 symmetry.

  Rotational constants: A =      0.34167  B =      0.10509  C =      0.08789 [cm^-1]
  Rotational constants: A =  10242.90793  B =   3150.40335  C =   2634.91516 [MHz]
  Nuclear repulsion =  175.304733645294277

  Charge       = 0
  Multiplicity = 1
  Electrons    = 40
  Nalpha       = 20
  Nbeta        = 20

  ==> Algorithm <==

  SCF Algorithm Type is DF.
  DIIS enabled.
  MOM disabled.
  Fractional occupation disabled.
  Guess Type is CORE.
  Energy threshold   = 1.00e-06
  Density threshold  = 1.00e-06
  Integral threshold = 0.00e+00

  ==> Primary Basis <==

  Basis Set: 6-31G*
    Number of shells: 46
    Number of basis function: 91
    Number of Cartesian functions: 91
    Spherical Harmonics?: false
    Max angular momentum: 2

  ==> Pre-Iterations <==

   -------------------------------------------------------
    Irrep   Nso     Nmo     Nalpha   Nbeta   Ndocc  Nsocc
   -------------------------------------------------------
     A         91      91       0       0       0       0
   -------------------------------------------------------
    Total      91      91      20      20      20       0
   -------------------------------------------------------

 OEINTS: Overlap, kinetic, potential, dipole, and quadrupole integrals
         stored in file 35.

  ==> Integral Setup <==

  ==> DFJK: Density-Fitted J/K Matrices <==

    J tasked:                  Yes
    K tasked:                  Yes
    wK tasked:                  No
    OpenMP threads:              1
    Integrals threads:           1
    Memory (MB):              1430
    Algorithm:                Core
    Integral Cache:           NONE
    Schwarz Cutoff:          1E-12
    Fitting Condition:       1E-12

   => Auxiliary Basis Set <=

  Basis Set: 
    Number of shells: 192
    Number of basis function: 605
    Number of Cartesian functions: 605
    Spherical Harmonics?: false
    Max angular momentum: 3

  Minimum eigenvalue in the overlap matrix is 3.7672103922E-03.
  Using Symmetric Orthogonalization.
  SCF Guess: Core (One-Electron) Hamiltonian.

  ==> Iterations <==

                           Total Energy        Delta E     RMS |[F,P]|

   @DF-RHF iter   1:  -181.41457568634883   -1.81415e+02   8.02143e-02 
   @DF-RHF iter   2:  -138.62167791380108    4.27929e+01   7.49985e-02 DIIS
   @DF-RHF iter   3:  -206.45877686462995   -6.78371e+01   4.68223e-02 DIIS
   @DF-RHF iter   4:  -212.86548185900358   -6.40670e+00   4.98433e-02 DIIS
   @DF-RHF iter   5:  -230.11504292755046   -1.72496e+01   1.44702e-02 DIIS
   @DF-RHF iter   6:  -230.78285133187723   -6.67808e-01   7.31493e-03 DIIS
   @DF-RHF iter   7:  -230.96097620882244   -1.78125e-01   1.55749e-03 DIIS
   @DF-RHF iter   8:  -230.97276094699765   -1.17847e-02   5.83788e-04 DIIS
   @DF-RHF iter   9:  -230.97470285077191   -1.94190e-03   2.43810e-04 DIIS
   @DF-RHF iter  10:  -230.97513603865860   -4.33188e-04   6.23037e-05 DIIS
   @DF-RHF iter  11:  -230.97517268533306   -3.66467e-05   2.21533e-05 DIIS
   @DF-RHF iter  12:  -230.97517700401914   -4.31869e-06   8.00381e-06 DIIS
   @DF-RHF iter  13:  -230.97517775738402   -7.53365e-07   3.19823e-06 DIIS
   @DF-RHF iter  14:  -230.97517790150539   -1.44121e-07   9.73724e-07 DIIS

  ==> Post-Iterations <==

    Orbital Energies (a.u.)
    -----------------------

    Doubly Occupied:                                                      

       1A    -20.560731     2A    -11.324551     3A    -11.237974  
       4A    -11.234460     5A    -11.226777     6A     -1.401061  
       7A     -1.090015     8A     -0.970686     9A     -0.863058  
      10A     -0.774398    11A     -0.676092    12A     -0.645878  
      13A     -0.623662    14A     -0.597586    15A     -0.562920  
      16A     -0.528724    17A     -0.519941    18A     -0.492863  
      19A     -0.476531    20A     -0.406391  

    Virtual:                                                              

      21A      0.159569    22A      0.231562    23A      0.253404  
      24A      0.265478    25A      0.298006    26A      0.310674  
      27A      0.316644    28A      0.336648    29A      0.368464  
      30A      0.384692    31A      0.406251    32A      0.478144  
      33A      0.508084    34A      0.723911    35A      0.728939  
      36A      0.757806    37A      0.794175    38A      0.801402  
      39A      0.814608    40A      0.885840    41A      0.909573  
      42A      0.928574    43A      0.984393    44A      1.018929  
      45A      1.070536    46A      1.107497    47A      1.122001  
      48A      1.125318    49A      1.146642    50A      1.166827  
      51A      1.176824    52A      1.187537    53A      1.227869  
      54A      1.254876    55A      1.294192    56A      1.321178  
      57A      1.365665    58A      1.479160    59A      1.581845  
      60A      1.661941    61A      1.721416    62A      1.787128  
      63A      1.871122    64A      1.916742    65A      2.011572  
      66A      2.057010    67A      2.122150    68A      2.141868  
      69A      2.185487    70A      2.204963    71A      2.283341  
      72A      2.341372    73A      2.413320    74A      2.439616  
      75A      2.501357    76A      2.552950    77A      2.660330  
      78A      2.680601    79A      2.708917    80A      2.785885  
      81A      2.887682    82A      2.956209    83A      2.990236  
      84A      3.044398    85A      3.266329    86A      3.369585  
      87A      4.316666    88A      4.530570    89A      4.641888  
      90A      4.753442    91A      4.984194  

    Final Occupation by Irrep:
              A 
    DOCC [    20 ]

  Energy converged.

  @DF-RHF Final Energy:  -230.97517790150539

   => Energetics <=

    Nuclear Repulsion Energy =            175.3047336452942773
    One-Electron Energy =                -660.1313143438381985
    Two-Electron Energy =                 253.8514027970381335
    DFT Exchange-Correlation Energy =       0.0000000000000000
    Empirical Dispersion Energy =           0.0000000000000000
    PCM Polarization Energy =               0.0000000000000000
    EFP Energy =                            0.0000000000000000
    Total Energy =                       -230.9751779015057878

    Alert: EFP and PCM quantities not currently incorporated into SCF psivars.

Properties will be evaluated at   0.000000,   0.000000,   0.000000 Bohr
  ==> Properties <==


Properties computed using the SCF density matrix

  Nuclear Dipole Moment: (a.u.)
     X:    -4.7297      Y:    -0.9760      Z:     5.5076

  Electronic Dipole Moment: (a.u.)
     X:     4.2313      Y:     0.8434      Z:    -4.3643

  Dipole Moment: (a.u.)
     X:    -0.4984      Y:    -0.1325      Z:     1.1433     Total:     1.2543

  Dipole Moment: (Debye)
     X:    -1.2669      Y:    -0.3369      Z:     2.9061     Total:     3.1880


  Saving occupied orbitals to File 180.

*** tstop() called on cx1-3-1-3.cx1.hpc.ic.ac.uk at Tue Jul  5 16:27:32 2016
Module time:
	user time   =       3.87 seconds =       0.06 minutes
	system time =       0.03 seconds =       0.00 minutes
	total time  =          4 seconds =       0.07 minutes
Total time:
	user time   =       3.87 seconds =       0.06 minutes
	system time =       0.03 seconds =       0.00 minutes
	total time  =          4 seconds =       0.07 minutes


Properties will be evaluated at   0.000000,   0.000000,   0.000000 Bohr

Properties computed using the  density matrix

  Nuclear Dipole Moment: (a.u.)
     X:    -4.7297      Y:    -0.9760      Z:     5.5076

  Electronic Dipole Moment: (a.u.)
     X:     4.2313      Y:     0.8434      Z:    -4.3643

  Dipole Moment: (a.u.)
     X:    -0.4984      Y:    -0.1325      Z:     1.1433     Total:     1.2543

  Dipole Moment: (Debye)
     X:    -1.2669      Y:    -0.3369      Z:     2.9061     Total:     3.1880

  Quadrupole Moment: (Debye Ang)
    XX:   -32.9499     YY:   -31.0260     ZZ:   -36.8462
    XY:    -0.6238     XZ:     3.9143     YZ:     0.4487

  Traceless Quadrupole Moment: (Debye Ang)
    XX:     0.6575     YY:     2.5814     ZZ:    -3.2388
    XY:    -0.6238     XZ:     3.9143     YZ:     0.4487

  Mulliken Charges: (a.u.)
   Center  Symbol    Alpha    Beta     Spin     Total
       1     H     0.42762  0.42762  0.00000  0.14477
       2     C     2.83550  2.83550  0.00000  0.32900
       3     C     3.21008  3.21008  0.00000 -0.42016
       4     O     4.23965  4.23965  0.00000 -0.47930
       5     C     3.15860  3.15860  0.00000 -0.31721
       6     H     0.39680  0.39680  0.00000  0.20641
       7     H     0.40766  0.40766  0.00000  0.18468
       8     C     3.25744  3.25744  0.00000 -0.51489
       9     H     0.41052  0.41052  0.00000  0.17897
      10     H     0.41389  0.41389  0.00000  0.17222
      11     H     0.41329  0.41329  0.00000  0.17342
      12     H     0.41082  0.41082  0.00000  0.17835
      13     H     0.41813  0.41813  0.00000  0.16375

   Total alpha = 20.00000, Total beta = 20.00000, Total charge = -0.00000


*** PSI4 exiting successfully. Buy a developer a beer!
