    -----------------------------------------------------------------------
          Psi4: An Open-Source Ab Initio Electronic Structure Package
                              Psi4 (no tag) Driver

                          Git: Rev {detached?}  

    J. M. Turney, A. C. Simmonett, R. M. Parrish, E. G. Hohenstein,
    F. A. Evangelista, J. T. Fermann, B. J. Mintz, L. A. Burns, J. J. Wilke,
    M. L. Abrams, N. J. Russ, M. L. Leininger, C. L. Janssen, E. T. Seidl,
    W. D. Allen, H. F. Schaefer, R. A. King, E. F. Valeev, C. D. Sherrill,
    and T. D. Crawford, WIREs Comput. Mol. Sci. 2, 556-565 (2012)
    (doi: 10.1002/wcms.93)

                         Additional Contributions by
    A. E. DePrince, M. Saitow, U. Bozkaya, A. Yu. Sokolov
    -----------------------------------------------------------------------


    Psi4 started on: Tue Jul  5 17:06:17 2016

    Process ID:  17434
    PSI4DATADIR: /export131/home/mjharvey/miniconda3/share
    Memory level set to 256.000 MB

  ==> Input File <==

--------------------------------------------------------------------------
set {
	reference rhf
	basis 6-31G*
}


set_num_threads( 1 )
memory 2 gb

molecule MOL {
0 1

H	 -2.646374	 -0.642757	 1.268656
C	 -2.083525	 -0.384536	 0.393091
O	 -0.807605	 -0.127164	 0.768327
F	 -2.118945	 -1.383102	 -0.486752
F	 -2.621877	 0.670592	 -0.209486
C	 0.084052	 0.273579	 -0.209957
C	 1.188767	 -0.773883	 -0.260812
Cl	 0.754708	 1.869969	 0.162836
H	 -0.373146	 0.330552	 -1.182324
F	 1.914539	 -0.729963	 0.836214
F	 1.976986	 -0.509962	 -1.283796
F	 0.713982	 -1.987081	 -0.404696

	symmetry c1
}
set optking {
	frozen_dihedral = ("
		10 7 6 9,
		6 3 2 4
	")
}

ee = energy('scf')
oeprop('DIPOLE', 'QUADRUPOLE', 'MULLIKEN_CHARGES')
f=open( 'psi4out.xyz', 'w' )
f.write( "12  " )
f.write( str(ee) + "\n" )
f.write( MOL.save_string_xyz() )
f.close()
--------------------------------------------------------------------------

  Memory set to   2.000 GiB by Python script.

*** tstart() called on cx1-3-4-4.cx1.hpc.ic.ac.uk
*** at Tue Jul  5 17:06:18 2016


         ---------------------------------------------------------
                                   SCF
            by Justin Turney, Rob Parrish, and Andy Simmonett
                              RHF Reference
                        1 Threads,   2000 MiB Core
         ---------------------------------------------------------

  ==> Geometry <==

    Molecular point group: c1
    Full point group: C1

    Geometry (in Angstrom), charge = 0, multiplicity = 1:

       Center              X                  Y                   Z               Mass       
    ------------   -----------------  -----------------  -----------------  -----------------
           H         -2.636216504953    -0.520887273236     1.335410640779     1.007825032070
           C         -2.073367504953    -0.262666273236     0.459845640779    12.000000000000
           O         -0.797447504953    -0.005294273236     0.835081640779    15.994914619560
           F         -2.108787504953    -1.261232273236    -0.419997359221    18.998403224000
           F         -2.611719504953     0.792461726764    -0.142731359221    18.998403224000
           C          0.094209495047     0.395448726764    -0.143202359221    12.000000000000
           C          1.198924495047    -0.652013273236    -0.194057359221    12.000000000000
          CL          0.764865495047     1.991838726764     0.229590640779    34.968852682000
           H         -0.362988504953     0.452421726764    -1.115569359221     1.007825032070
           F          1.924696495047    -0.608093273236     0.902968640779    18.998403224000
           F          1.987143495047    -0.388092273236    -1.217041359221    18.998403224000
           F          0.724139495047    -1.865211273236    -0.337941359221    18.998403224000

  Running in c1 symmetry.

  Rotational constants: A =      0.05057  B =      0.03123  C =      0.02256 [cm^-1]
  Rotational constants: A =   1515.95514  B =    936.35446  C =    676.41569 [MHz]
  Nuclear repulsion =  740.291939386048739

  Charge       = 0
  Multiplicity = 1
  Electrons    = 90
  Nalpha       = 45
  Nbeta        = 45

  ==> Algorithm <==

  SCF Algorithm Type is DF.
  DIIS enabled.
  MOM disabled.
  Fractional occupation disabled.
  Guess Type is CORE.
  Energy threshold   = 1.00e-06
  Density threshold  = 1.00e-06
  Integral threshold = 0.00e+00

  ==> Primary Basis <==

  Basis Set: 6-31G*
    Number of shells: 66
    Number of basis function: 158
    Number of Cartesian functions: 158
    Spherical Harmonics?: false
    Max angular momentum: 2

  ==> Pre-Iterations <==

   -------------------------------------------------------
    Irrep   Nso     Nmo     Nalpha   Nbeta   Ndocc  Nsocc
   -------------------------------------------------------
     A        158     158       0       0       0       0
   -------------------------------------------------------
    Total     158     158      45      45      45       0
   -------------------------------------------------------

 OEINTS: Overlap, kinetic, potential, dipole, and quadrupole integrals
         stored in file 35.

  ==> Integral Setup <==

  ==> DFJK: Density-Fitted J/K Matrices <==

    J tasked:                  Yes
    K tasked:                  Yes
    wK tasked:                  No
    OpenMP threads:              1
    Integrals threads:           1
    Memory (MB):              1430
    Algorithm:                Core
    Integral Cache:           NONE
    Schwarz Cutoff:          1E-12
    Fitting Condition:       1E-12

   => Auxiliary Basis Set <=

  Basis Set: 
    Number of shells: 270
    Number of basis function: 909
    Number of Cartesian functions: 909
    Spherical Harmonics?: false
    Max angular momentum: 3

  Minimum eigenvalue in the overlap matrix is 1.6973606107E-03.
  Using Symmetric Orthogonalization.
  SCF Guess: Core (One-Electron) Hamiltonian.

  ==> Iterations <==

                           Total Energy        Delta E     RMS |[F,P]|

   @DF-RHF iter   1: -1049.48984746558244   -1.04949e+03   6.74461e-02 
   @DF-RHF iter   2:  -723.95074568066923    3.25539e+02   8.29526e-02 DIIS
   @DF-RHF iter   3:  -958.79461248763880   -2.34844e+02   7.73210e-02 DIIS
   @DF-RHF iter   4: -1124.66075574984143   -1.65866e+02   2.94947e-02 DIIS
   @DF-RHF iter   5: -1116.37105501121687    8.28970e+00   4.12322e-02 DIIS
   @DF-RHF iter   6: -1140.91772557376544   -2.45467e+01   1.83138e-02 DIIS
   @DF-RHF iter   7: -1145.58852489908350   -4.67080e+00   8.46832e-03 DIIS
   @DF-RHF iter   8: -1146.25294771427616   -6.64423e-01   2.12390e-03 DIIS
   @DF-RHF iter   9: -1146.30283385536313   -4.98861e-02   8.77386e-04 DIIS
   @DF-RHF iter  10: -1146.31190154535489   -9.06769e-03   2.14383e-04 DIIS
   @DF-RHF iter  11: -1146.31253597245859   -6.34427e-04   9.92765e-05 DIIS
   @DF-RHF iter  12: -1146.31265722272474   -1.21250e-04   2.86496e-05 DIIS
   @DF-RHF iter  13: -1146.31266959408731   -1.23714e-05   9.13520e-06 DIIS
   @DF-RHF iter  14: -1146.31267101704589   -1.42296e-06   2.77260e-06 DIIS
   @DF-RHF iter  15: -1146.31267114352113   -1.26475e-07   9.32162e-07 DIIS

  ==> Post-Iterations <==

    Orbital Energies (a.u.)
    -----------------------

    Doubly Occupied:                                                      

       1A   -104.846321     2A    -26.362831     3A    -26.356548  
       4A    -26.352794     5A    -26.347853     6A    -26.345322  
       7A    -20.648402     8A    -11.525273     9A    -11.489742  
      10A    -11.400009    11A    -10.580798    12A     -8.050172  
      13A     -8.046612    14A     -8.046494    15A     -1.759965  
      16A     -1.718192    17A     -1.658533    18A     -1.652598  
      19A     -1.638802    20A     -1.485587    21A     -1.180436  
      22A     -1.050496    23A     -0.987045    24A     -0.918559  
      25A     -0.858291    26A     -0.852657    27A     -0.843955  
      28A     -0.826531    29A     -0.811767    30A     -0.789398  
      31A     -0.728183    32A     -0.724447    33A     -0.704348  
      34A     -0.701029    35A     -0.677863    36A     -0.672528  
      37A     -0.657213    38A     -0.656318    39A     -0.645007  
      40A     -0.635430    41A     -0.596390    42A     -0.578139  
      43A     -0.525257    44A     -0.479049    45A     -0.469502  

    Virtual:                                                              

      46A      0.170915    47A      0.243387    48A      0.260421  
      49A      0.285663    50A      0.345179    51A      0.364396  
      52A      0.402659    53A      0.422084    54A      0.449000  
      55A      0.457846    56A      0.487836    57A      0.550675  
      58A      0.618640    59A      0.630226    60A      0.635475  
      61A      0.672955    62A      0.703833    63A      0.713252  
      64A      0.741973    65A      0.747918    66A      0.762098  
      67A      0.794663    68A      0.830713    69A      0.927988  
      70A      0.975218    71A      0.995116    72A      1.058369  
      73A      1.075891    74A      1.112649    75A      1.144909  
      76A      1.183016    77A      1.196984    78A      1.249036  
      79A      1.282906    80A      1.286973    81A      1.319853  
      82A      1.330293    83A      1.365002    84A      1.395891  
      85A      1.405633    86A      1.425695    87A      1.487844  
      88A      1.529983    89A      1.572099    90A      1.583298  
      91A      1.605574    92A      1.626928    93A      1.636655  
      94A      1.640657    95A      1.645661    96A      1.658931  
      97A      1.672807    98A      1.681895    99A      1.685498  
     100A      1.721437   101A      1.766359   102A      1.824820  
     103A      1.885136   104A      1.936887   105A      1.963293  
     106A      1.965039   107A      1.990765   108A      2.029381  
     109A      2.087941   110A      2.096090   111A      2.106030  
     112A      2.109970   113A      2.135609   114A      2.145414  
     115A      2.148174   116A      2.252011   117A      2.285394  
     118A      2.302084   119A      2.311442   120A      2.326099  
     121A      2.343695   122A      2.365133   123A      2.395282  
     124A      2.400608   125A      2.421879   126A      2.433469  
     127A      2.482642   128A      2.517427   129A      2.562062  
     130A      2.589952   131A      2.643729   132A      2.709713  
     133A      2.743273   134A      2.812417   135A      2.838718  
     136A      2.895897   137A      3.000687   138A      3.030601  
     139A      3.132372   140A      3.164909   141A      3.203181  
     142A      3.297504   143A      3.314411   144A      3.399008  
     145A      3.413540   146A      3.431542   147A      3.460137  
     148A      3.475520   149A      4.344125   150A      4.552985  
     151A      4.570701   152A      4.702062   153A      4.729269  
     154A      4.909831   155A      4.982485   156A      5.274578  
     157A      5.646426   158A      5.887956  

    Final Occupation by Irrep:
              A 
    DOCC [    45 ]

  Energy converged.

  @DF-RHF Final Energy: -1146.31267114352113

   => Energetics <=

    Nuclear Repulsion Energy =            740.2919393860487389
    One-Electron Energy =               -3063.4436407851999320
    Two-Electron Energy =                1176.8390302556301776
    DFT Exchange-Correlation Energy =       0.0000000000000000
    Empirical Dispersion Energy =           0.0000000000000000
    PCM Polarization Energy =               0.0000000000000000
    EFP Energy =                            0.0000000000000000
    Total Energy =                      -1146.3126711435209018

    Alert: EFP and PCM quantities not currently incorporated into SCF psivars.

Properties will be evaluated at   0.000000,   0.000000,   0.000000 Bohr
  ==> Properties <==


Properties computed using the SCF density matrix

  Nuclear Dipole Moment: (a.u.)
     X:    -3.4359      Y:     1.2539      Z:     1.1459

  Electronic Dipole Moment: (a.u.)
     X:     2.7536      Y:    -1.3377      Z:    -1.0836

  Dipole Moment: (a.u.)
     X:    -0.6823      Y:    -0.0838      Z:     0.0623     Total:     0.6903

  Dipole Moment: (Debye)
     X:    -1.7343      Y:    -0.2129      Z:     0.1583     Total:     1.7545


  Saving occupied orbitals to File 180.

*** tstop() called on cx1-3-4-4.cx1.hpc.ic.ac.uk at Tue Jul  5 17:06:39 2016
Module time:
	user time   =      20.52 seconds =       0.34 minutes
	system time =       0.24 seconds =       0.00 minutes
	total time  =         21 seconds =       0.35 minutes
Total time:
	user time   =      20.52 seconds =       0.34 minutes
	system time =       0.24 seconds =       0.00 minutes
	total time  =         21 seconds =       0.35 minutes


Properties will be evaluated at   0.000000,   0.000000,   0.000000 Bohr

Properties computed using the  density matrix

  Nuclear Dipole Moment: (a.u.)
     X:    -3.4359      Y:     1.2539      Z:     1.1459

  Electronic Dipole Moment: (a.u.)
     X:     2.7536      Y:    -1.3377      Z:    -1.0836

  Dipole Moment: (a.u.)
     X:    -0.6823      Y:    -0.0838      Z:     0.0623     Total:     0.6903

  Dipole Moment: (Debye)
     X:    -1.7343      Y:    -0.2129      Z:     0.1583     Total:     1.7545

  Quadrupole Moment: (Debye Ang)
    XX:   -59.7870     YY:   -62.8860     ZZ:   -58.9261
    XY:     1.3844     XZ:    -3.6688     YZ:    -1.5323

  Traceless Quadrupole Moment: (Debye Ang)
    XX:     0.7461     YY:    -2.3530     ZZ:     1.6069
    XY:     1.3844     XZ:    -3.6688     YZ:    -1.5323

  Mulliken Charges: (a.u.)
   Center  Symbol    Alpha    Beta     Spin     Total
       1     H     0.40104  0.40104  0.00000  0.19792
       2     C     2.56566  2.56566  0.00000  0.86869
       3     O     4.29838  4.29838  0.00000 -0.59677
       4     F     4.68669  4.68669  0.00000 -0.37339
       5     F     4.68532  4.68532  0.00000 -0.37063
       6     C     3.05054  3.05054  0.00000 -0.10107
       7     C     2.43313  2.43313  0.00000  1.13374
       8    CL     8.49379  8.49379  0.00000  0.01242
       9     H     0.36687  0.36687  0.00000  0.26626
      10     F     4.67146  4.67146  0.00000 -0.34292
      11     F     4.67658  4.67658  0.00000 -0.35316
      12     F     4.67054  4.67054  0.00000 -0.34108

   Total alpha = 45.00000, Total beta = 45.00000, Total charge =  0.00000


*** PSI4 exiting successfully. Buy a developer a beer!
