    -----------------------------------------------------------------------
          Psi4: An Open-Source Ab Initio Electronic Structure Package
                              Psi4 (no tag) Driver

                          Git: Rev {detached?}  

    J. M. Turney, A. C. Simmonett, R. M. Parrish, E. G. Hohenstein,
    F. A. Evangelista, J. T. Fermann, B. J. Mintz, L. A. Burns, J. J. Wilke,
    M. L. Abrams, N. J. Russ, M. L. Leininger, C. L. Janssen, E. T. Seidl,
    W. D. Allen, H. F. Schaefer, R. A. King, E. F. Valeev, C. D. Sherrill,
    and T. D. Crawford, WIREs Comput. Mol. Sci. 2, 556-565 (2012)
    (doi: 10.1002/wcms.93)

                         Additional Contributions by
    A. E. DePrince, M. Saitow, U. Bozkaya, A. Yu. Sokolov
    -----------------------------------------------------------------------


    Psi4 started on: Tue Jul 26 13:33:55 2016

    Process ID:  12221
    PSI4DATADIR: /export131/home/mjharvey/miniconda3/share
    Memory level set to 256.000 MB

  ==> Input File <==

--------------------------------------------------------------------------
set {
	reference rhf
	basis 6-31G*
}


set_num_threads( 24 )
memory 2 gb

molecule MOL {
0 1

H	 -0.619747	 -2.576127	 0.166587
C	 -1.444431	 -2.051032	 0.608117
C	 -1.224516	 -1.150904	 1.538115
H	 -2.438760	 -2.281141	 0.272077
O	 -0.058873	 -1.105489	 2.235090
H	 -1.940432	 -0.388888	 1.789164
C	 1.122280	 -0.938099	 1.529193
C	 1.575007	 -2.228300	 0.883472
H	 1.928985	 -0.573371	 2.155427
H	 0.937284	 -0.221590	 0.743120
F	 0.516023	 -2.913006	 0.476399
F	 2.338925	 -2.006426	 -0.172989
F	 2.253173	 -2.987911	 1.717973

	symmetry c1
}
set optking {
	frozen_dihedral = ("
		11 8 7 9,
		3 5 7 9,
		6 3 2 1
	")
}

ee = energy('scf')
oeprop('DIPOLE', 'QUADRUPOLE', 'MULLIKEN_CHARGES')
f=open( 'psi4out.xyz', 'w' )
f.write( "13  " )
f.write( str(ee) + "\n" )
f.write( MOL.save_string_xyz() )
f.close()
--------------------------------------------------------------------------

  Memory set to   2.000 GiB by Python script.

*** tstart() called on cx1b.hpc.ic.ac.uk
*** at Tue Jul 26 13:33:55 2016


         ---------------------------------------------------------
                                   SCF
            by Justin Turney, Rob Parrish, and Andy Simmonett
                              RHF Reference
                       24 Threads,   2000 MiB Core
         ---------------------------------------------------------

  ==> Geometry <==

    Molecular point group: c1
    Full point group: C1

    Geometry (in Angstrom), charge = 0, multiplicity = 1:

       Center              X                  Y                   Z               Mass       
    ------------   -----------------  -----------------  -----------------  -----------------
           H         -1.367947882458    -0.589147763548    -0.896867528634     1.007825032070
           C         -2.192631882458    -0.064052763548    -0.455337528634    12.000000000000
           C         -1.972716882458     0.836075236452     0.474660471366    12.000000000000
           H         -3.186960882458    -0.294161763548    -0.791377528634     1.007825032070
           O         -0.807073882458     0.881490236452     1.171635471366    15.994914619560
           H         -2.688632882458     1.598091236452     0.725709471366     1.007825032070
           C          0.374079117542     1.048880236452     0.465738471366    12.000000000000
           C          0.826806117542    -0.241320763548    -0.179982528634    12.000000000000
           H          1.180784117542     1.413608236452     1.091972471366     1.007825032070
           H          0.189083117542     1.765389236452    -0.320334528634     1.007825032070
           F         -0.232177882458    -0.926026763548    -0.587055528634    18.998403224000
           F          1.590724117542    -0.019446763548    -1.236443528634    18.998403224000
           F          1.504972117542    -1.000931763548     0.654518471366    18.998403224000

  Running in c1 symmetry.

  Rotational constants: A =      0.12680  B =      0.05504  C =      0.04859 [cm^-1]
  Rotational constants: A =   3801.28767  B =   1649.91493  C =   1456.80454 [MHz]
  Nuclear repulsion =  432.555972679621505

  Charge       = 0
  Multiplicity = 1
  Electrons    = 64
  Nalpha       = 32
  Nbeta        = 32

  ==> Algorithm <==

  SCF Algorithm Type is DF.
  DIIS enabled.
  MOM disabled.
  Fractional occupation disabled.
  Guess Type is CORE.
  Energy threshold   = 1.00e-06
  Density threshold  = 1.00e-06
  Integral threshold = 0.00e+00

  ==> Primary Basis <==

  Basis Set: 6-31G*
    Number of shells: 58
    Number of basis function: 130
    Number of Cartesian functions: 130
    Spherical Harmonics?: false
    Max angular momentum: 2

  ==> Pre-Iterations <==

   -------------------------------------------------------
    Irrep   Nso     Nmo     Nalpha   Nbeta   Ndocc  Nsocc
   -------------------------------------------------------
     A        130     130       0       0       0       0
   -------------------------------------------------------
    Total     130     130      32      32      32       0
   -------------------------------------------------------

 OEINTS: Overlap, kinetic, potential, dipole, and quadrupole integrals
         stored in file 35.

  ==> Integral Setup <==

  ==> DFJK: Density-Fitted J/K Matrices <==

    J tasked:                  Yes
    K tasked:                  Yes
    wK tasked:                  No
    OpenMP threads:             24
    Integrals threads:          24
    Memory (MB):              1430
    Algorithm:                Core
    Integral Cache:           NONE
    Schwarz Cutoff:          1E-12
    Fitting Condition:       1E-12

   => Auxiliary Basis Set <=

  Basis Set: 
    Number of shells: 237
    Number of basis function: 773
    Number of Cartesian functions: 773
    Spherical Harmonics?: false
    Max angular momentum: 3

  Minimum eigenvalue in the overlap matrix is 1.7817069298E-03.
  Using Symmetric Orthogonalization.
  SCF Guess: Core (One-Electron) Hamiltonian.

  ==> Iterations <==

                           Total Energy        Delta E     RMS |[F,P]|

   @DF-RHF iter   1:  -442.95135225847196   -4.42951e+02   7.68024e-02 
   @DF-RHF iter   2:  -230.00063963350362    2.12951e+02   1.03943e-01 DIIS
   @DF-RHF iter   3:  -490.19890978114006   -2.60198e+02   4.40059e-02 DIIS
   @DF-RHF iter   4:  -426.48093324028957    6.37180e+01   6.58795e-02 DIIS
   @DF-RHF iter   5:  -523.74739120657307   -9.72665e+01   1.60250e-02 DIIS
   @DF-RHF iter   6:  -526.91394058987851   -3.16655e+00   8.51382e-03 DIIS
   @DF-RHF iter   7:  -527.38769087200774   -4.73750e-01   1.77048e-03 DIIS
   @DF-RHF iter   8:  -527.41293864661873   -2.52478e-02   8.34778e-04 DIIS
   @DF-RHF iter   9:  -527.41969612570631   -6.75748e-03   3.64309e-04 DIIS
   @DF-RHF iter  10:  -527.42103308681851   -1.33696e-03   1.55201e-04 DIIS
   @DF-RHF iter  11:  -527.42132584393062   -2.92757e-04   2.81651e-05 DIIS
   @DF-RHF iter  12:  -527.42133800009969   -1.21562e-05   9.49571e-06 DIIS
   @DF-RHF iter  13:  -527.42133996397286   -1.96387e-06   4.38041e-06 DIIS
   @DF-RHF iter  14:  -527.42134020334731   -2.39374e-07   1.31404e-06 DIIS
   @DF-RHF iter  15:  -527.42134024685868   -4.35114e-08   4.19187e-07 DIIS

  ==> Post-Iterations <==

    Orbital Energies (a.u.)
    -----------------------

    Doubly Occupied:                                                      

       1A    -26.366931     2A    -26.356851     3A    -26.353003  
       4A    -20.593478     5A    -11.516141     6A    -11.317607  
       7A    -11.275098     8A    -11.178954     9A     -1.767879  
      10A     -1.675986    11A     -1.651190    12A     -1.427953  
      13A     -1.087755    14A     -1.010492    15A     -0.976417  
      16A     -0.863950    17A     -0.848829    18A     -0.821507  
      19A     -0.799805    20A     -0.738237    21A     -0.729583  
      22A     -0.712762    23A     -0.681247    24A     -0.678070  
      25A     -0.660555    26A     -0.648478    27A     -0.638138  
      28A     -0.597610    29A     -0.530257    30A     -0.483003  
      31A     -0.459300    32A     -0.343273  

    Virtual:                                                              

      33A      0.186235    34A      0.251025    35A      0.266347  
      36A      0.292920    37A      0.303824    38A      0.339416  
      39A      0.373021    40A      0.404061    41A      0.417937  
      42A      0.457373    43A      0.490122    44A      0.516201  
      45A      0.571180    46A      0.670969    47A      0.709187  
      48A      0.732155    49A      0.740144    50A      0.783649  
      51A      0.794129    52A      0.805775    53A      0.813516  
      54A      0.891530    55A      0.908607    56A      0.921487  
      57A      0.977364    58A      1.076569    59A      1.115654  
      60A      1.126142    61A      1.133078    62A      1.169286  
      63A      1.216976    64A      1.232110    65A      1.283200  
      66A      1.323831    67A      1.338311    68A      1.366566  
      69A      1.376597    70A      1.434788    71A      1.467398  
      72A      1.544488    73A      1.599490    74A      1.610529  
      75A      1.626753    76A      1.641730    77A      1.658363  
      78A      1.666418    79A      1.700917    80A      1.772325  
      81A      1.831993    82A      1.882078    83A      1.897325  
      84A      1.925080    85A      1.946537    86A      1.985947  
      87A      2.071204    88A      2.089448    89A      2.110112  
      90A      2.124833    91A      2.149139    92A      2.176259  
      93A      2.234290    94A      2.255089    95A      2.272424  
      96A      2.293944    97A      2.317133    98A      2.367854  
      99A      2.375425   100A      2.385879   101A      2.414042  
     102A      2.459023   103A      2.502148   104A      2.513730  
     105A      2.555437   106A      2.622849   107A      2.695848  
     108A      2.750298   109A      2.793545   110A      2.819352  
     111A      2.838552   112A      2.887225   113A      3.060516  
     114A      3.122654   115A      3.148665   116A      3.181733  
     117A      3.259381   118A      3.341051   119A      3.410616  
     120A      3.420351   121A      3.438805   122A      3.458023  
     123A      4.353479   124A      4.602620   125A      4.625100  
     126A      4.769309   127A      4.901439   128A      5.049699  
     129A      5.136612   130A      5.992859  

    Final Occupation by Irrep:
              A 
    DOCC [    32 ]

  Energy converged.

  @DF-RHF Final Energy:  -527.42134024685868

   => Energetics <=

    Nuclear Repulsion Energy =            432.5559726796215045
    One-Electron Energy =               -1588.3739414780643529
    Two-Electron Energy =                 628.3966285515843992
    DFT Exchange-Correlation Energy =       0.0000000000000000
    Empirical Dispersion Energy =           0.0000000000000000
    PCM Polarization Energy =               0.0000000000000000
    EFP Energy =                            0.0000000000000000
    Total Energy =                       -527.4213402468585628

    Alert: EFP and PCM quantities not currently incorporated into SCF psivars.

Properties will be evaluated at   0.000000,   0.000000,   0.000000 Bohr
  ==> Properties <==


Properties computed using the SCF density matrix

  Nuclear Dipole Moment: (a.u.)
     X:    -8.2116      Y:     5.4907      Z:     0.9294

  Electronic Dipole Moment: (a.u.)
     X:     8.4681      Y:    -4.9045      Z:    -1.2027

  Dipole Moment: (a.u.)
     X:     0.2566      Y:     0.5861      Z:    -0.2732     Total:     0.6957

  Dipole Moment: (Debye)
     X:     0.6521      Y:     1.4898      Z:    -0.6945     Total:     1.7684


  Saving occupied orbitals to File 180.

*** tstop() called on cx1b.hpc.ic.ac.uk at Tue Jul 26 13:34:01 2016
Module time:
	user time   =      64.93 seconds =       1.08 minutes
	system time =       2.51 seconds =       0.04 minutes
	total time  =          6 seconds =       0.10 minutes
Total time:
	user time   =      64.93 seconds =       1.08 minutes
	system time =       2.51 seconds =       0.04 minutes
	total time  =          6 seconds =       0.10 minutes


Properties will be evaluated at   0.000000,   0.000000,   0.000000 Bohr

Properties computed using the  density matrix

  Nuclear Dipole Moment: (a.u.)
     X:    -8.2116      Y:     5.4907      Z:     0.9294

  Electronic Dipole Moment: (a.u.)
     X:     8.4681      Y:    -4.9045      Z:    -1.2027

  Dipole Moment: (a.u.)
     X:     0.2566      Y:     0.5861      Z:    -0.2732     Total:     0.6957

  Dipole Moment: (Debye)
     X:     0.6521      Y:     1.4898      Z:    -0.6945     Total:     1.7684

  Quadrupole Moment: (Debye Ang)
    XX:   -44.9073     YY:   -42.6156     ZZ:   -47.6162
    XY:     1.0310     XZ:     2.0170     YZ:     0.9750

  Traceless Quadrupole Moment: (Debye Ang)
    XX:     0.1391     YY:     2.4307     ZZ:    -2.5698
    XY:     1.0310     XZ:     2.0170     YZ:     0.9750

  Mulliken Charges: (a.u.)
   Center  Symbol    Alpha    Beta     Spin     Total
       1     H     0.34310  0.34310  0.00000  0.31381
       2     C     3.25560  3.25560  0.00000 -0.51120
       3     C     2.93529  2.93529  0.00000  0.12941
       4     H     0.41846  0.41846  0.00000  0.16308
       5     O     4.30386  4.30386  0.00000 -0.60772
       6     H     0.40586  0.40586  0.00000  0.18829
       7     C     3.06465  3.06465  0.00000 -0.12930
       8     C     2.44933  2.44933  0.00000  1.10135
       9     H     0.39090  0.39090  0.00000  0.21820
      10     H     0.40412  0.40412  0.00000  0.19175
      11     F     4.67610  4.67610  0.00000 -0.35221
      12     F     4.67947  4.67947  0.00000 -0.35895
      13     F     4.67325  4.67325  0.00000 -0.34650

   Total alpha = 32.00000, Total beta = 32.00000, Total charge = -0.00000


*** PSI4 exiting successfully. Buy a developer a beer!
