
    -----------------------------------------------------------------------
          Psi4: An Open-Source Ab Initio Electronic Structure Package
                               Psi4 1.1 release

                         Git: Rev {HEAD} add49b9 


    R. M. Parrish, L. A. Burns, D. G. A. Smith, A. C. Simmonett,
    A. E. DePrince III, E. G. Hohenstein, U. Bozkaya, A. Yu. Sokolov,
    R. Di Remigio, R. M. Richard, J. F. Gonthier, A. M. James,
    H. R. McAlexander, A. Kumar, M. Saitow, X. Wang, B. P. Pritchard,
    P. Verma, H. F. Schaefer III, K. Patkowski, R. A. King, E. F. Valeev,
    F. A. Evangelista, J. M. Turney, T. D. Crawford, and C. D. Sherrill,
    J. Chem. Theory Comput. in press (2017).
    (doi: 10.1021/acs.jctc.7b00174)

    -----------------------------------------------------------------------


    Psi4 started on: Friday, 15 September 2017 12:42PM

    Process ID:  13048
    PSIDATADIR: /home/raimis/opt/miniconda3/envs/htmd/share/psi4
    Memory:     500.0 MiB
    Threads:    1
    
  ==> Input File <==

--------------------------------------------------------------------------
set_num_threads( 8 )
memory 2.000000 gb

set { reference rks }
set { basis cc-pVDZ }

molecule MOL {
    0 1
    noreorient
    nocom
    symmetry c1
    O    1.050400   0.042900  -0.048100
    C    2.474100   0.047400  -0.029000
    C    3.002600  -1.068900  -0.932000
    N    4.462700  -1.072400  -1.006800
    H    0.760400   0.728400   0.578000
    H    2.809900  -0.097900   1.003200
    H    2.817400   1.026800  -0.378600
    H    2.581000  -0.963300  -1.938400
    H    2.653800  -2.036400  -0.553400
    H    4.775758  -0.256295  -1.531633
    H    4.761490  -1.883512  -1.548162
}

set optking { frozen_dihedral = (" 2 3 4 10 ") }

energy, wfn = energy('B3LYP-D3', return_wfn=True)

import os
os.chdir(os.environ['HTMD_PSI4_WORKDIR'])

oeprop(wfn, 'DIPOLE', 'QUADRUPOLE', 'MULLIKEN_CHARGES')

with open('psi4out.xyz', 'w') as f:
    f.write('11 ' )
    f.write('%.12f\n' % energy)
    f.write(MOL.save_string_xyz())
--------------------------------------------------------------------------
  Threads set to 8 by Python driver.

  Memory set to   1.863 GiB by Python driver.

*** tstart() called on computer03
*** at Fri Sep 15 12:42:15 2017

   => Loading Basis Set <=

    Name: CC-PVDZ
    Role: ORBITAL
    Keyword: BASIS
    atoms 1    entry O          line   190 file /home/raimis/opt/miniconda3/envs/htmd/share/psi4/basis/cc-pvdz.gbs 
    atoms 2-3  entry C          line   130 file /home/raimis/opt/miniconda3/envs/htmd/share/psi4/basis/cc-pvdz.gbs 
    atoms 4    entry N          line   160 file /home/raimis/opt/miniconda3/envs/htmd/share/psi4/basis/cc-pvdz.gbs 
    atoms 5-11 entry H          line    20 file /home/raimis/opt/miniconda3/envs/htmd/share/psi4/basis/cc-pvdz.gbs 


         ---------------------------------------------------------
                                   SCF
            by Justin Turney, Rob Parrish, and Andy Simmonett
                              RKS Reference
                        8 Threads,   1907 MiB Core
         ---------------------------------------------------------

  ==> Geometry <==

    Molecular point group: c1
    Full point group: C1

    Geometry (in Angstrom), charge = 0, multiplicity = 1:

       Center              X                  Y                   Z               Mass       
    ------------   -----------------  -----------------  -----------------  -----------------
           O          1.050400000000     0.042900000000    -0.048100000000    15.994914619560
           C          2.474100000000     0.047400000000    -0.029000000000    12.000000000000
           C          3.002600000000    -1.068900000000    -0.932000000000    12.000000000000
           N          4.462700000000    -1.072400000000    -1.006800000000    14.003074004780
           H          0.760400000000     0.728400000000     0.578000000000     1.007825032070
           H          2.809900000000    -0.097900000000     1.003200000000     1.007825032070
           H          2.817400000000     1.026800000000    -0.378600000000     1.007825032070
           H          2.581000000000    -0.963300000000    -1.938400000000     1.007825032070
           H          2.653800000000    -2.036400000000    -0.553400000000     1.007825032070
           H          4.775758000000    -0.256295000000    -1.531633000000     1.007825032070
           H          4.761490000000    -1.883512000000    -1.548162000000     1.007825032070

  Running in c1 symmetry.

  Rotational constants: A =      0.72131  B =      0.02762  C =      0.02694 [cm^-1]
  Rotational constants: A =  21624.45647  B =    828.15923  C =    807.78089 [MHz]
  Nuclear repulsion =  130.388279756108716

  Charge       = 0
  Multiplicity = 1
  Electrons    = 34
  Nalpha       = 17
  Nbeta        = 17

  ==> Algorithm <==

  SCF Algorithm Type is DF.
  DIIS enabled.
  MOM disabled.
  Fractional occupation disabled.
  Guess Type is SAD.
  Energy threshold   = 1.00e-06
  Density threshold  = 1.00e-06
  Integral threshold = 0.00e+00

  ==> Primary Basis <==

  Basis Set: CC-PVDZ
    Blend: CC-PVDZ
    Number of shells: 45
    Number of basis function: 91
    Number of Cartesian functions: 95
    Spherical Harmonics?: true
    Max angular momentum: 2

  ==> DFT Potential <==

   => B3LYP Composite Functional <= 

    B3LYP Hybrid-GGA Exchange-Correlation Functional (VWN1-RPA)

    P.J. Stephens et. al., J. Phys. Chem., 98, 11623-11627, 1994

    Points   =           5000
    Deriv    =              1
    GGA      =           TRUE
    Meta     =          FALSE

    X_LRC        =          FALSE
    X_Hybrid     =           TRUE
    X_Alpha      =   2.000000E-01
    X_Omega      =   0.000000E+00
    C_LRC        =          FALSE
    C_Hybrid     =          FALSE
    C_Alpha      =   0.000000E+00
    C_Omega      =   0.000000E+00

   => Exchange Functionals <=

    0.8000    B3_X
    0.2000      HF 

   => Correlation Functionals <=

    0.1900 VWN3RPA_C
    0.8100   LYP_C

   => Molecular Quadrature <=

    Radial Scheme    =       TREUTLER
    Pruning Scheme   =           FLAT
    Nuclear Scheme   =       TREUTLER

    BS radius alpha  =              1
    Pruning alpha    =              1
    Radial Points    =             75
    Spherical Points =            302
    Total Points     =         245087
    Total Blocks     =            221
    Max Points       =           4946
    Max Functions    =             91

   => -D3ZERO: Empirical Dispersion <=

    Grimme's -D3 (zero-damping) Dispersion Correction
    Grimme S.; Antony J.; Ehrlich S.; Krieg H. (2010), J. Chem. Phys., 132: 154104

        S6 =   1.000000E+00
        S8 =   1.703000E+00
       SR6 =   1.261000E+00
    ALPHA6 =   1.400000E+01

   => Loading Basis Set <=

    Name: (CC-PVDZ AUX)
    Role: JKFIT
    Keyword: DF_BASIS_SCF
    atoms 1    entry O          line   220 file /home/raimis/opt/miniconda3/envs/htmd/share/psi4/basis/cc-pvdz-jkfit.gbs 
    atoms 2-3  entry C          line   120 file /home/raimis/opt/miniconda3/envs/htmd/share/psi4/basis/cc-pvdz-jkfit.gbs 
    atoms 4    entry N          line   170 file /home/raimis/opt/miniconda3/envs/htmd/share/psi4/basis/cc-pvdz-jkfit.gbs 
    atoms 5-11 entry H          line    50 file /home/raimis/opt/miniconda3/envs/htmd/share/psi4/basis/cc-pvdz-jkfit.gbs 

  ==> Pre-Iterations <==

   -------------------------------------------------------
    Irrep   Nso     Nmo     Nalpha   Nbeta   Ndocc  Nsocc
   -------------------------------------------------------
     A         91      91       0       0       0       0
   -------------------------------------------------------
    Total      91      91      17      17      17       0
   -------------------------------------------------------

  ==> Integral Setup <==

  ==> DFJK: Density-Fitted J/K Matrices <==

    J tasked:                  Yes
    K tasked:                  Yes
    wK tasked:                  No
    OpenMP threads:              8
    Integrals threads:           8
    Memory (MB):              1430
    Algorithm:                Core
    Integral Cache:           NONE
    Schwarz Cutoff:          1E-12
    Fitting Condition:       1E-12

   => Auxiliary Basis Set <=

  Basis Set: (CC-PVDZ AUX)
    Blend: CC-PVDZ-JKFIT
    Number of shells: 159
    Number of basis function: 441
    Number of Cartesian functions: 499
    Spherical Harmonics?: true
    Max angular momentum: 3

  Minimum eigenvalue in the overlap matrix is 4.4929591460E-03.
  Using Symmetric Orthogonalization.

  SCF Guess: Superposition of Atomic Densities via on-the-fly atomic UHF.

  ==> Iterations <==

                           Total Energy        Delta E     RMS |[F,P]|

   @DF-RKS iter   0:  -210.81969881203224   -2.10820e+02   6.92814e-02 
   @DF-RKS iter   1:  -210.19841197819687    6.21287e-01   1.46748e-02 
   @DF-RKS iter   2:  -210.03816172184949    1.60250e-01   2.01256e-02 DIIS
   @DF-RKS iter   3:  -210.39024803693852   -3.52086e-01   1.07711e-03 DIIS
   @DF-RKS iter   4:  -210.39087094731934   -6.22910e-04   7.39322e-04 DIIS
   @DF-RKS iter   5:  -210.39140370506740   -5.32758e-04   7.18583e-05 DIIS
   @DF-RKS iter   6:  -210.39140949268969   -5.78762e-06   4.65905e-05 DIIS
   @DF-RKS iter   7:  -210.39141150098698   -2.00830e-06   3.42218e-06 DIIS
   @DF-RKS iter   8:  -210.39141151396154   -1.29746e-08   1.32250e-06 DIIS
   @DF-RKS iter   9:  -210.39141151563797   -1.67643e-09   3.63811e-07 DIIS

  ==> Post-Iterations <==

    Orbital Energies (a.u.)
    -----------------------

    Doubly Occupied:                                                      

       1A    -19.126484     2A    -14.305060     3A    -10.222978  
       4A    -10.201777     5A     -1.008872     6A     -0.876747  
       7A     -0.711904     8A     -0.596369     9A     -0.505448  
      10A     -0.487178    11A     -0.452248    12A     -0.416886  
      13A     -0.389228    14A     -0.361421    15A     -0.323191  
      16A     -0.260128    17A     -0.231469  

    Virtual:                                                              

      18A      0.051353    19A      0.058605    20A      0.100760  
      21A      0.119185    22A      0.125723    23A      0.152499  
      24A      0.171129    25A      0.203774    26A      0.244100  
      27A      0.257809    28A      0.438106    29A      0.452923  
      30A      0.485282    31A      0.497836    32A      0.562445  
      33A      0.582439    34A      0.608415    35A      0.615671  
      36A      0.640512    37A      0.652943    38A      0.658713  
      39A      0.680480    40A      0.702664    41A      0.816502  
      42A      0.835672    43A      0.846536    44A      0.914244  
      45A      0.961603    46A      0.993594    47A      1.015899  
      48A      1.064007    49A      1.185896    50A      1.214067  
      51A      1.233704    52A      1.251721    53A      1.328440  
      54A      1.352909    55A      1.416284    56A      1.486667  
      57A      1.518397    58A      1.602131    59A      1.613710  
      60A      1.640533    61A      1.656022    62A      1.660984  
      63A      1.711960    64A      1.740537    65A      1.761387  
      66A      1.772081    67A      1.805052    68A      1.860534  
      69A      1.916008    70A      1.948082    71A      1.991791  
      72A      2.014787    73A      2.055545    74A      2.146358  
      75A      2.156701    76A      2.246543    77A      2.298228  
      78A      2.370919    79A      2.390854    80A      2.441684  
      81A      2.478256    82A      2.533706    83A      2.609454  
      84A      2.681453    85A      2.822372    86A      2.960855  
      87A      3.016940    88A      3.037973    89A      3.124478  
      90A      3.203363    91A      3.696754  

    Final Occupation by Irrep:
              A 
    DOCC [    17 ]

  Energy converged.

  @DF-RKS Final Energy:  -210.39141151563797

   => Energetics <=

    Nuclear Repulsion Energy =            130.3882797561087159
    One-Electron Energy =                -543.7226803927234187
    Two-Electron Energy =                 226.4342978826340129
    DFT Exchange-Correlation Energy =     -23.4864090416572928
    Empirical Dispersion Energy =          -0.0048997200000000
    PCM Polarization Energy =               0.0000000000000000
    EFP Energy =                            0.0000000000000000
    Total Energy =                       -210.3914115156379694



Properties will be evaluated at   0.000000,   0.000000,   0.000000 Bohr

Properties computed using the SCF density matrix

  Nuclear Dipole Moment: (a.u.)
     X:   176.9956      Y:   -31.6998      Z:   -33.1976

  Electronic Dipole Moment: (a.u.)
     X:  -176.8086      Y:    32.0429      Z:    33.0542

  Dipole Moment: (a.u.)
     X:     0.1870      Y:     0.3431      Z:    -0.1433     Total:     0.4162

  Dipole Moment: (Debye)
     X:     0.4753      Y:     0.8721      Z:    -0.3643     Total:     1.0579


*** tstop() called on computer03 at Fri Sep 15 12:42:34 2017
Module time:
	user time   =      35.76 seconds =       0.60 minutes
	system time =       0.80 seconds =       0.01 minutes
	total time  =         19 seconds =       0.32 minutes
Total time:
	user time   =      35.76 seconds =       0.60 minutes
	system time =       0.80 seconds =       0.01 minutes
	total time  =         19 seconds =       0.32 minutes


Properties will be evaluated at   0.000000,   0.000000,   0.000000 Bohr

Properties computed using the  density matrix

  Nuclear Dipole Moment: (a.u.)
     X:   176.9956      Y:   -31.6998      Z:   -33.1976

  Electronic Dipole Moment: (a.u.)
     X:  -176.8086      Y:    32.0429      Z:    33.0542

  Dipole Moment: (a.u.)
     X:     0.1870      Y:     0.3431      Z:    -0.1433     Total:     0.4162

  Dipole Moment: (Debye)
     X:     0.4753      Y:     0.8721      Z:    -0.3643     Total:     1.0579

  Quadrupole Moment: (Debye Ang)
    XX:   -25.1483     YY:   -23.0863     ZZ:   -22.5447
    XY:     0.3815     XZ:    -6.1919     YZ:     2.3767

  Traceless Quadrupole Moment: (Debye Ang)
    XX:    -1.5552     YY:     0.5068     ZZ:     1.0484
    XY:     0.3815     XZ:    -6.1919     YZ:     2.3767

  Mulliken Charges: (a.u.)
   Center  Symbol    Alpha    Beta     Spin     Total
       1     O     4.13966  4.13966  0.00000 -0.27931
       2     C     2.92834  2.92834  0.00000  0.14333
       3     C     2.98611  2.98611  0.00000  0.02778
       4     N     3.59313  3.59313  0.00000 -0.18626
       5     H     0.42981  0.42981  0.00000  0.14037
       6     H     0.49842  0.49842  0.00000  0.00316
       7     H     0.50481  0.50481  0.00000 -0.00961
       8     H     0.50074  0.50074  0.00000 -0.00147
       9     H     0.49015  0.49015  0.00000  0.01971
      10     H     0.46554  0.46554  0.00000  0.06893
      11     H     0.46331  0.46331  0.00000  0.07338

   Total alpha = 17.00000, Total beta = 17.00000, Total charge =  0.00000


*** Psi4 exiting successfully. Buy a developer a beer!
