    -----------------------------------------------------------------------
          Psi4: An Open-Source Ab Initio Electronic Structure Package
                              Psi4 (no tag) Driver

                          Git: Rev {detached?}  

    J. M. Turney, A. C. Simmonett, R. M. Parrish, E. G. Hohenstein,
    F. A. Evangelista, J. T. Fermann, B. J. Mintz, L. A. Burns, J. J. Wilke,
    M. L. Abrams, N. J. Russ, M. L. Leininger, C. L. Janssen, E. T. Seidl,
    W. D. Allen, H. F. Schaefer, R. A. King, E. F. Valeev, C. D. Sherrill,
    and T. D. Crawford, WIREs Comput. Mol. Sci. 2, 556-565 (2012)
    (doi: 10.1002/wcms.93)

                         Additional Contributions by
    A. E. DePrince, M. Saitow, U. Bozkaya, A. Yu. Sokolov
    -----------------------------------------------------------------------


    Psi4 started on: Tue Jul  5 16:47:38 2016

    Process ID:  31372
    PSI4DATADIR: /export131/home/mjharvey/miniconda3/share
    Memory level set to 256.000 MB

  ==> Input File <==

--------------------------------------------------------------------------
set {
	reference rhf
	basis 6-31G*
}


set_num_threads( 1 )
memory 2 gb

molecule MOL {
0 1

H	 -3.650283	 0.221984	 0.000000
C	 -2.577024	 0.154109	 0.000000
C	 -1.960329	 -1.089307	 0.000000
C	 -1.811733	 1.307557	 0.000000
H	 -2.554473	 -1.985285	 0.000000
C	 -0.581547	 -1.175855	 0.000000
H	 -2.287118	 2.271701	 0.000000
C	 -0.428719	 1.219221	 0.000000
H	 -0.090826	 -2.129898	 0.000000
C	 0.198341	 -0.021559	 0.000000
H	 0.149947	 2.124040	 0.000000
C	 1.691355	 -0.173192	 0.000000
C	 2.308274	 -1.387758	 0.661652
O	 2.385922	 0.652577	 -0.514837
H	 2.046508	 -1.430639	 1.713992
H	 3.382336	 -1.324169	 0.562470
H	 1.957915	 -2.302950	 0.195334

	symmetry c1
}
ee = energy('scf')
oeprop('DIPOLE', 'QUADRUPOLE', 'MULLIKEN_CHARGES')
f=open( 'psi4out.xyz', 'w' )
f.write( "17  " )
f.write( str(ee) + "\n" )
f.write( MOL.save_string_xyz() )
f.close()
--------------------------------------------------------------------------

  Memory set to   2.000 GiB by Python script.

*** tstart() called on cx1-3-15-4.cx1.hpc.ic.ac.uk
*** at Tue Jul  5 16:47:39 2016


         ---------------------------------------------------------
                                   SCF
            by Justin Turney, Rob Parrish, and Andy Simmonett
                              RHF Reference
                        1 Threads,   2000 MiB Core
         ---------------------------------------------------------

  ==> Geometry <==

    Molecular point group: c1
    Full point group: C1

    Geometry (in Angstrom), charge = 0, multiplicity = 1:

       Center              X                  Y                   Z               Mass       
    ------------   -----------------  -----------------  -----------------  -----------------
           H         -3.643385103950     0.289904407332    -0.018292799307     1.007825032070
           C         -2.570126103950     0.222029407332    -0.018292799307    12.000000000000
           C         -1.953431103950    -1.021386592668    -0.018292799307    12.000000000000
           C         -1.804835103950     1.375477407332    -0.018292799307    12.000000000000
           H         -2.547575103950    -1.917364592668    -0.018292799307     1.007825032070
           C         -0.574649103950    -1.107934592668    -0.018292799307    12.000000000000
           H         -2.280220103950     2.339621407332    -0.018292799307     1.007825032070
           C         -0.421821103950     1.287141407332    -0.018292799307    12.000000000000
           H         -0.083928103950    -2.061977592668    -0.018292799307     1.007825032070
           C          0.205238896050     0.046361407332    -0.018292799307    12.000000000000
           H          0.156844896050     2.191960407332    -0.018292799307     1.007825032070
           C          1.698252896050    -0.105271592668    -0.018292799307    12.000000000000
           C          2.315171896050    -1.319837592668     0.643359200693    12.000000000000
           O          2.392819896050     0.720497407332    -0.533129799307    15.994914619560
           H          2.053405896050    -1.362718592668     1.695699200693     1.007825032070
           H          3.389233896050    -1.256248592668     0.544177200693     1.007825032070
           H          1.964812896050    -2.235029592668     0.177041200693     1.007825032070

  Running in c1 symmetry.

  Rotational constants: A =      0.12487  B =      0.04013  C =      0.03143 [cm^-1]
  Rotational constants: A =   3743.63474  B =   1203.15253  C =    942.38910 [MHz]
  Nuclear repulsion =  403.291539128035254

  Charge       = 0
  Multiplicity = 1
  Electrons    = 64
  Nalpha       = 32
  Nbeta        = 32

  ==> Algorithm <==

  SCF Algorithm Type is DF.
  DIIS enabled.
  MOM disabled.
  Fractional occupation disabled.
  Guess Type is CORE.
  Energy threshold   = 1.00e-06
  Density threshold  = 1.00e-06
  Integral threshold = 0.00e+00

  ==> Primary Basis <==

  Basis Set: 6-31G*
    Number of shells: 70
    Number of basis function: 151
    Number of Cartesian functions: 151
    Spherical Harmonics?: false
    Max angular momentum: 2

  ==> Pre-Iterations <==

   -------------------------------------------------------
    Irrep   Nso     Nmo     Nalpha   Nbeta   Ndocc  Nsocc
   -------------------------------------------------------
     A        151     151       0       0       0       0
   -------------------------------------------------------
    Total     151     151      32      32      32       0
   -------------------------------------------------------

 OEINTS: Overlap, kinetic, potential, dipole, and quadrupole integrals
         stored in file 35.

  ==> Integral Setup <==

  ==> DFJK: Density-Fitted J/K Matrices <==

    J tasked:                  Yes
    K tasked:                  Yes
    wK tasked:                  No
    OpenMP threads:              1
    Integrals threads:           1
    Memory (MB):              1430
    Algorithm:                Core
    Integral Cache:           NONE
    Schwarz Cutoff:          1E-12
    Fitting Condition:       1E-12

   => Auxiliary Basis Set <=

  Basis Set: 
    Number of shells: 288
    Number of basis function: 929
    Number of Cartesian functions: 929
    Spherical Harmonics?: false
    Max angular momentum: 3

  Minimum eigenvalue in the overlap matrix is 4.3156537359E-04.
  Using Symmetric Orthogonalization.
  SCF Guess: Core (One-Electron) Hamiltonian.

  ==> Iterations <==

                           Total Energy        Delta E     RMS |[F,P]|

   @DF-RHF iter   1:  -296.40351861882522   -2.96404e+02   6.41504e-02 
   @DF-RHF iter   2:  -279.21874918976545    1.71848e+01   5.17913e-02 DIIS
   @DF-RHF iter   3:  -322.93038074973657   -4.37116e+01   5.18464e-02 DIIS
   @DF-RHF iter   4:  -373.21715617780859   -5.02868e+01   2.31485e-02 DIIS
   @DF-RHF iter   5:  -352.54653017456661    2.06706e+01   3.56578e-02 DIIS
   @DF-RHF iter   6:  -382.10844771265698   -2.95619e+01   5.42481e-03 DIIS
   @DF-RHF iter   7:  -382.35697070487953   -2.48523e-01   3.47580e-03 DIIS
   @DF-RHF iter   8:  -382.46491196142887   -1.07941e-01   6.13470e-04 DIIS
   @DF-RHF iter   9:  -382.46975411902275   -4.84216e-03   3.29153e-04 DIIS
   @DF-RHF iter  10:  -382.47138970663417   -1.63559e-03   8.99015e-05 DIIS
   @DF-RHF iter  11:  -382.47159096930653   -2.01263e-04   2.29935e-05 DIIS
   @DF-RHF iter  12:  -382.47160840926080   -1.74400e-05   1.10092e-05 DIIS
   @DF-RHF iter  13:  -382.47161273989872   -4.33064e-06   5.08621e-06 DIIS
   @DF-RHF iter  14:  -382.47161440597739   -1.66608e-06   2.35501e-06 DIIS
   @DF-RHF iter  15:  -382.47161474971250   -3.43735e-07   1.06428e-06 DIIS
   @DF-RHF iter  16:  -382.47161481008965   -6.03771e-08   3.61412e-07 DIIS

  ==> Post-Iterations <==

    Orbital Energies (a.u.)
    -----------------------

    Doubly Occupied:                                                      

       1A    -20.550599     2A    -11.331362     3A    -11.246655  
       4A    -11.245210     5A    -11.245021     6A    -11.243613  
       7A    -11.241082     8A    -11.239666     9A    -11.230549  
      10A     -1.395970    11A     -1.166446    12A     -1.051646  
      13A     -1.026648    14A     -0.996228    15A     -0.861339  
      16A     -0.836412    17A     -0.760440    18A     -0.707583  
      19A     -0.658008    20A     -0.645829    21A     -0.627192  
      22A     -0.611342    23A     -0.600588    24A     -0.591289  
      25A     -0.554623    26A     -0.527411    27A     -0.516393  
      28A     -0.502009    29A     -0.489262    30A     -0.410121  
      31A     -0.345460    32A     -0.342081  

    Virtual:                                                              

      33A      0.100887    34A      0.136229    35A      0.206636  
      36A      0.227481    37A      0.255297    38A      0.291568  
      39A      0.303088    40A      0.307326    41A      0.318571  
      42A      0.332841    43A      0.361931    44A      0.384572  
      45A      0.403232    46A      0.449937    47A      0.466757  
      48A      0.494080    49A      0.501427    50A      0.525471  
      51A      0.563640    52A      0.675577    53A      0.716367  
      54A      0.737064    55A      0.747823    56A      0.764618  
      57A      0.775639    58A      0.785666    59A      0.806725  
      60A      0.811969    61A      0.818495    62A      0.832193  
      63A      0.838445    64A      0.845316    65A      0.858918  
      66A      0.894297    67A      0.916874    68A      0.967551  
      69A      0.994612    70A      0.998654    71A      1.026194  
      72A      1.085159    73A      1.090732    74A      1.105969  
      75A      1.110062    76A      1.117080    77A      1.138276  
      78A      1.160493    79A      1.170799    80A      1.195076  
      81A      1.204588    82A      1.216974    83A      1.237334  
      84A      1.261666    85A      1.292991    86A      1.304404  
      87A      1.336078    88A      1.390212    89A      1.402258  
      90A      1.419075    91A      1.447166    92A      1.466672  
      93A      1.511374    94A      1.602185    95A      1.677531  
      96A      1.689173    97A      1.715795    98A      1.746026  
      99A      1.755038   100A      1.767247   101A      1.780250  
     102A      1.783740   103A      1.928205   104A      1.963122  
     105A      2.052138   106A      2.077056   107A      2.116215  
     108A      2.132695   109A      2.162691   110A      2.177263  
     111A      2.228729   112A      2.237340   113A      2.311796  
     114A      2.318874   115A      2.354009   116A      2.390612  
     117A      2.403653   118A      2.459797   119A      2.469630  
     120A      2.480167   121A      2.512364   122A      2.553519  
     123A      2.602644   124A      2.622481   125A      2.632157  
     126A      2.640906   127A      2.732410   128A      2.763693  
     129A      2.892133   130A      2.904656   131A      2.932739  
     132A      2.979549   133A      3.025853   134A      3.061676  
     135A      3.108400   136A      3.121658   137A      3.123409  
     138A      3.227097   139A      3.344509   140A      3.376686  
     141A      3.549336   142A      3.828727   143A      4.392599  
     144A      4.517340   145A      4.536955   146A      4.547440  
     147A      4.636469   148A      4.736292   149A      4.754743  
     150A      4.899327   151A      5.146147  

    Final Occupation by Irrep:
              A 
    DOCC [    32 ]

  Energy converged.

  @DF-RHF Final Energy:  -382.47161481008965

   => Energetics <=

    Nuclear Repulsion Energy =            403.2915391280352537
    One-Electron Energy =               -1317.9300451748663363
    Two-Electron Energy =                 532.1668912367420035
    DFT Exchange-Correlation Energy =       0.0000000000000000
    Empirical Dispersion Energy =           0.0000000000000000
    PCM Polarization Energy =               0.0000000000000000
    EFP Energy =                            0.0000000000000000
    Total Energy =                       -382.4716148100890223

    Alert: EFP and PCM quantities not currently incorporated into SCF psivars.

Properties will be evaluated at   0.000000,   0.000000,   0.000000 Bohr
  ==> Properties <==


Properties computed using the SCF density matrix

  Nuclear Dipole Moment: (a.u.)
     X:    -0.9174      Y:    -3.7575      Z:     2.1775

  Electronic Dipole Moment: (a.u.)
     X:    -0.0082      Y:     3.0142      Z:    -1.6473

  Dipole Moment: (a.u.)
     X:    -0.9256      Y:    -0.7433      Z:     0.5302     Total:     1.3001

  Dipole Moment: (Debye)
     X:    -2.3526      Y:    -1.8894      Z:     1.3476     Total:     3.3046


  Saving occupied orbitals to File 180.

*** tstop() called on cx1-3-15-4.cx1.hpc.ic.ac.uk at Tue Jul  5 16:47:57 2016
Module time:
	user time   =      18.39 seconds =       0.31 minutes
	system time =       0.19 seconds =       0.00 minutes
	total time  =         18 seconds =       0.30 minutes
Total time:
	user time   =      18.39 seconds =       0.31 minutes
	system time =       0.19 seconds =       0.00 minutes
	total time  =         18 seconds =       0.30 minutes


Properties will be evaluated at   0.000000,   0.000000,   0.000000 Bohr

Properties computed using the  density matrix

  Nuclear Dipole Moment: (a.u.)
     X:    -0.9174      Y:    -3.7575      Z:     2.1775

  Electronic Dipole Moment: (a.u.)
     X:    -0.0082      Y:     3.0142      Z:    -1.6473

  Dipole Moment: (a.u.)
     X:    -0.9256      Y:    -0.7433      Z:     0.5302     Total:     1.3001

  Dipole Moment: (Debye)
     X:    -2.3526      Y:    -1.8894      Z:     1.3476     Total:     3.3046

  Quadrupole Moment: (Debye Ang)
    XX:   -53.3335     YY:   -47.6248     ZZ:   -56.0662
    XY:    -5.5667     XZ:     3.5317     YZ:     0.9189

  Traceless Quadrupole Moment: (Debye Ang)
    XX:    -0.9920     YY:     4.7167     ZZ:    -3.7247
    XY:    -5.5667     XZ:     3.5317     YZ:     0.9189

  Mulliken Charges: (a.u.)
   Center  Symbol    Alpha    Beta     Spin     Total
       1     H     0.39561  0.39561  0.00000  0.20878
       2     C     3.09403  3.09403  0.00000 -0.18805
       3     C     3.10306  3.10306  0.00000 -0.20612
       4     C     3.10317  3.10317  0.00000 -0.20634
       5     H     0.39638  0.39638  0.00000  0.20724
       6     C     3.10548  3.10548  0.00000 -0.21096
       7     H     0.39477  0.39477  0.00000  0.21045
       8     C     3.09203  3.09203  0.00000 -0.18406
       9     H     0.39436  0.39436  0.00000  0.21127
      10     C     3.04117  3.04117  0.00000 -0.08233
      11     H     0.38253  0.38253  0.00000  0.23494
      12     C     2.73875  2.73875  0.00000  0.52250
      13     C     3.29062  3.29062  0.00000 -0.58124
      14     O     4.26205  4.26205  0.00000 -0.52410
      15     H     0.40319  0.40319  0.00000  0.19362
      16     H     0.39404  0.39404  0.00000  0.21191
      17     H     0.40876  0.40876  0.00000  0.18249

   Total alpha = 32.00000, Total beta = 32.00000, Total charge =  0.00000


*** PSI4 exiting successfully. Buy a developer a beer!
