    -----------------------------------------------------------------------
          Psi4: An Open-Source Ab Initio Electronic Structure Package
                              Psi4 (no tag) Driver

                          Git: Rev {detached?}  

    J. M. Turney, A. C. Simmonett, R. M. Parrish, E. G. Hohenstein,
    F. A. Evangelista, J. T. Fermann, B. J. Mintz, L. A. Burns, J. J. Wilke,
    M. L. Abrams, N. J. Russ, M. L. Leininger, C. L. Janssen, E. T. Seidl,
    W. D. Allen, H. F. Schaefer, R. A. King, E. F. Valeev, C. D. Sherrill,
    and T. D. Crawford, WIREs Comput. Mol. Sci. 2, 556-565 (2012)
    (doi: 10.1002/wcms.93)

                         Additional Contributions by
    A. E. DePrince, M. Saitow, U. Bozkaya, A. Yu. Sokolov
    -----------------------------------------------------------------------


    Psi4 started on: Tue Jul  5 17:38:53 2016

    Process ID:  29701
    PSI4DATADIR: /export131/home/mjharvey/miniconda3/share
    Memory level set to 256.000 MB

  ==> Input File <==

--------------------------------------------------------------------------
set {
	reference rhf
	basis 6-31G*
}


set_num_threads( 1 )
memory 2 gb

molecule MOL {
0 1

H	 -0.653791	 -3.145848	 0.165028
O	 0.141052	 -2.643897	 0.316770
C	 0.102382	 -1.563045	 -0.462125
C	 0.624473	 -0.343591	 0.253101
O	 -0.302492	 -1.603202	 -1.578136
C	 -0.265902	 0.883932	 0.072916
H	 0.740303	 -0.614115	 1.297502
H	 1.628992	 -0.158063	 -0.118751
C	 -1.728698	 0.646073	 0.462102
H	 -0.209144	 1.219470	 -0.958188
H	 0.135059	 1.692851	 0.673903
C	 -1.933463	 -0.055758	 1.807637
H	 -2.191054	 0.043809	 -0.316529
H	 -2.262759	 1.595242	 0.465784
C	 -1.105121	 0.571202	 2.928908
H	 -2.987870	 -0.018849	 2.073919
H	 -1.675047	 -1.108293	 1.725337
H	 -1.265435	 0.056496	 3.871082
H	 -1.367390	 1.615363	 3.073030
H	 -0.043259	 0.525961	 2.703877

	symmetry c1
}
set optking {
	frozen_dihedral = ("
		16 12 9 6,
		7 4 6 10,
		12 9 6 10,
		5 3 4 7
	")
}

ee = energy('scf')
oeprop('DIPOLE', 'QUADRUPOLE', 'MULLIKEN_CHARGES')
f=open( 'psi4out.xyz', 'w' )
f.write( "20  " )
f.write( str(ee) + "\n" )
f.write( MOL.save_string_xyz() )
f.close()
--------------------------------------------------------------------------

  Memory set to   2.000 GiB by Python script.

*** tstart() called on cx1-1-1-2.cx1.hpc.ic.ac.uk
*** at Tue Jul  5 17:38:53 2016


         ---------------------------------------------------------
                                   SCF
            by Justin Turney, Rob Parrish, and Andy Simmonett
                              RHF Reference
                        1 Threads,   2000 MiB Core
         ---------------------------------------------------------

  ==> Geometry <==

    Molecular point group: c1
    Full point group: C1

    Geometry (in Angstrom), charge = 0, multiplicity = 1:

       Center              X                  Y                   Z               Mass       
    ------------   -----------------  -----------------  -----------------  -----------------
           H         -0.098252362359    -2.589793572282    -0.311746000356     1.007825032070
           O          0.696590637641    -2.087842572282    -0.160004000356    15.994914619560
           C          0.657920637641    -1.006990572282    -0.938899000356    12.000000000000
           C          1.180011637641     0.212463427718    -0.223673000356    12.000000000000
           O          0.253046637641    -1.047147572282    -2.054910000356    15.994914619560
           C          0.289636637641     1.439986427718    -0.403858000356    12.000000000000
           H          1.295841637641    -0.058060572282     0.820727999644     1.007825032070
           H          2.184530637641     0.397991427718    -0.595525000356     1.007825032070
           C         -1.173159362359     1.202127427718    -0.014672000356    12.000000000000
           H          0.346394637641     1.775524427718    -1.434962000356     1.007825032070
           H          0.690597637641     2.248905427718     0.197128999644     1.007825032070
           C         -1.377924362359     0.500296427718     1.330862999644    12.000000000000
           H         -1.635515362359     0.599863427718    -0.793303000356     1.007825032070
           H         -1.707220362359     2.151296427718    -0.010990000356     1.007825032070
           C         -0.549582362359     1.127256427718     2.452133999644    12.000000000000
           H         -2.432331362359     0.537205427718     1.597144999644     1.007825032070
           H         -1.119508362359    -0.552238572282     1.248562999644     1.007825032070
           H         -0.709896362359     0.612550427718     3.394307999644     1.007825032070
           H         -0.811851362359     2.171417427718     2.596255999644     1.007825032070
           H          0.512279637641     1.082015427718     2.227102999644     1.007825032070

  Running in c1 symmetry.

  Rotational constants: A =      0.10409  B =      0.04368  C =      0.03910 [cm^-1]
  Rotational constants: A =   3120.49443  B =   1309.37915  C =   1172.16774 [MHz]
  Nuclear repulsion =  401.625612509309121

  Charge       = 0
  Multiplicity = 1
  Electrons    = 64
  Nalpha       = 32
  Nbeta        = 32

  ==> Algorithm <==

  SCF Algorithm Type is DF.
  DIIS enabled.
  MOM disabled.
  Fractional occupation disabled.
  Guess Type is CORE.
  Energy threshold   = 1.00e-06
  Density threshold  = 1.00e-06
  Integral threshold = 0.00e+00

  ==> Primary Basis <==

  Basis Set: 6-31G*
    Number of shells: 72
    Number of basis function: 144
    Number of Cartesian functions: 144
    Spherical Harmonics?: false
    Max angular momentum: 2

  ==> Pre-Iterations <==

   -------------------------------------------------------
    Irrep   Nso     Nmo     Nalpha   Nbeta   Ndocc  Nsocc
   -------------------------------------------------------
     A        144     144       0       0       0       0
   -------------------------------------------------------
    Total     144     144      32      32      32       0
   -------------------------------------------------------

 OEINTS: Overlap, kinetic, potential, dipole, and quadrupole integrals
         stored in file 35.

  ==> Integral Setup <==

  ==> DFJK: Density-Fitted J/K Matrices <==

    J tasked:                  Yes
    K tasked:                  Yes
    wK tasked:                  No
    OpenMP threads:              1
    Integrals threads:           1
    Memory (MB):              1430
    Algorithm:                Core
    Integral Cache:           NONE
    Schwarz Cutoff:          1E-12
    Fitting Condition:       1E-12

   => Auxiliary Basis Set <=

  Basis Set: 
    Number of shells: 300
    Number of basis function: 948
    Number of Cartesian functions: 948
    Spherical Harmonics?: false
    Max angular momentum: 3

  Minimum eigenvalue in the overlap matrix is 2.9982414351E-03.
  Using Symmetric Orthogonalization.
  SCF Guess: Core (One-Electron) Hamiltonian.

  ==> Iterations <==

                           Total Energy        Delta E     RMS |[F,P]|

   @DF-RHF iter   1:  -300.54366671654998   -3.00544e+02   6.39321e-02 
   @DF-RHF iter   2:  -151.60980911198772    1.48934e+02   8.46957e-02 DIIS
   @DF-RHF iter   3:  -350.79652125541281   -1.99187e+02   3.17045e-02 DIIS
   @DF-RHF iter   4:  -267.03780824885678    8.37587e+01   7.46184e-02 DIIS
   @DF-RHF iter   5:  -308.92116046139586   -4.18834e+01   6.01365e-02 DIIS
   @DF-RHF iter   6:  -345.18975699251178   -3.62686e+01   4.73796e-02 DIIS
   @DF-RHF iter   7:  -360.66448906090102   -1.54747e+01   3.36982e-02 DIIS
   @DF-RHF iter   8:  -379.51025407842747   -1.88458e+01   1.57956e-02 DIIS
   @DF-RHF iter   9:  -383.50353938341266   -3.99329e+00   6.52022e-03 DIIS
   @DF-RHF iter  10:  -383.88525474589164   -3.81715e-01   1.96086e-03 DIIS
   @DF-RHF iter  11:  -383.92274429436748   -3.74895e-02   6.42678e-04 DIIS
   @DF-RHF iter  12:  -383.92862730108573   -5.88301e-03   2.98873e-04 DIIS
   @DF-RHF iter  13:  -383.92981062854108   -1.18333e-03   8.13072e-05 DIIS
   @DF-RHF iter  14:  -383.92992863374934   -1.18005e-04   2.80703e-05 DIIS
   @DF-RHF iter  15:  -383.92993841830685   -9.78456e-06   1.12829e-05 DIIS
   @DF-RHF iter  16:  -383.92994092085110   -2.50254e-06   3.89435e-06 DIIS
   @DF-RHF iter  17:  -383.92994120805565   -2.87205e-07   1.20763e-06 DIIS
   @DF-RHF iter  18:  -383.92994125479117   -4.67355e-08   4.09851e-07 DIIS

  ==> Post-Iterations <==

    Orbital Energies (a.u.)
    -----------------------

    Doubly Occupied:                                                      

       1A    -20.607683     2A    -20.553370     3A    -11.380443  
       4A    -11.237252     5A    -11.229176     6A    -11.223491  
       7A    -11.220474     8A    -11.214276     9A     -1.473083  
      10A     -1.366377    11A     -1.103454    12A     -1.036087  
      13A     -0.959750    14A     -0.885153    15A     -0.817580  
      16A     -0.766331    17A     -0.706642    18A     -0.682347  
      19A     -0.673734    20A     -0.635328    21A     -0.624177  
      22A     -0.582494    23A     -0.572591    24A     -0.555068  
      25A     -0.527544    26A     -0.521710    27A     -0.516265  
      28A     -0.479355    29A     -0.469803    30A     -0.462635  
      31A     -0.459569    32A     -0.438725  

    Virtual:                                                              

      33A      0.176302    34A      0.207008    35A      0.236857  
      36A      0.263561    37A      0.282521    38A      0.290600  
      39A      0.296394    40A      0.314707    41A      0.330144  
      42A      0.332010    43A      0.353897    44A      0.365786  
      45A      0.379072    46A      0.391949    47A      0.397337  
      48A      0.416393    49A      0.447778    50A      0.496895  
      51A      0.523807    52A      0.567505    53A      0.698431  
      54A      0.711007    55A      0.722842    56A      0.741892  
      57A      0.767846    58A      0.777505    59A      0.842298  
      60A      0.856951    61A      0.895158    62A      0.912002  
      63A      0.929296    64A      0.945334    65A      0.963406  
      66A      0.985780    67A      1.006082    68A      1.045450  
      69A      1.055488    70A      1.073709    71A      1.092899  
      72A      1.124715    73A      1.128046    74A      1.150897  
      75A      1.159741    76A      1.179043    77A      1.188814  
      78A      1.206188    79A      1.218312    80A      1.229255  
      81A      1.238360    82A      1.256972    83A      1.268390  
      84A      1.272753    85A      1.317665    86A      1.338073  
      87A      1.371366    88A      1.374097    89A      1.423429  
      90A      1.473913    91A      1.490522    92A      1.624664  
      93A      1.656981    94A      1.711679    95A      1.733033  
      96A      1.775629    97A      1.865368    98A      1.871089  
      99A      1.896062   100A      1.939135   101A      2.001640  
     102A      2.019324   103A      2.057452   104A      2.103518  
     105A      2.115629   106A      2.132761   107A      2.140655  
     108A      2.213379   109A      2.268146   110A      2.276848  
     111A      2.306517   112A      2.313998   113A      2.345167  
     114A      2.364775   115A      2.414899   116A      2.435867  
     117A      2.504419   118A      2.566531   119A      2.632731  
     120A      2.668664   121A      2.682541   122A      2.688749  
     123A      2.719240   124A      2.750903   125A      2.756132  
     126A      2.821998   127A      2.846206   128A      2.899453  
     129A      2.988515   130A      3.004699   131A      3.064559  
     132A      3.117630   133A      3.131897   134A      3.270567  
     135A      3.382482   136A      3.481162   137A      4.256583  
     138A      4.533579   139A      4.608652   140A      4.690743  
     141A      4.765269   142A      4.843577   143A      4.924672  
     144A      5.043296  

    Final Occupation by Irrep:
              A 
    DOCC [    32 ]

  Energy converged.

  @DF-RHF Final Energy:  -383.92994125479117

   => Energetics <=

    Nuclear Repulsion Energy =            401.6256125093091214
    One-Electron Energy =               -1319.1471425526719941
    Two-Electron Energy =                 533.5915887885724942
    DFT Exchange-Correlation Energy =       0.0000000000000000
    Empirical Dispersion Energy =           0.0000000000000000
    PCM Polarization Energy =               0.0000000000000000
    EFP Energy =                            0.0000000000000000
    Total Energy =                       -383.9299412547903785

    Alert: EFP and PCM quantities not currently incorporated into SCF psivars.

Properties will be evaluated at   0.000000,   0.000000,   0.000000 Bohr
  ==> Properties <==


Properties computed using the SCF density matrix

  Nuclear Dipole Moment: (a.u.)
     X:    -3.2625      Y:     7.8378      Z:     8.3654

  Electronic Dipole Moment: (a.u.)
     X:     3.0775      Y:    -7.6016      Z:    -7.5389

  Dipole Moment: (a.u.)
     X:    -0.1850      Y:     0.2362      Z:     0.8264     Total:     0.8792

  Dipole Moment: (Debye)
     X:    -0.4702      Y:     0.6004      Z:     2.1006     Total:     2.2347


  Saving occupied orbitals to File 180.

*** tstop() called on cx1-1-1-2.cx1.hpc.ic.ac.uk at Tue Jul  5 17:39:12 2016
Module time:
	user time   =      18.65 seconds =       0.31 minutes
	system time =       0.20 seconds =       0.00 minutes
	total time  =         19 seconds =       0.32 minutes
Total time:
	user time   =      18.65 seconds =       0.31 minutes
	system time =       0.20 seconds =       0.00 minutes
	total time  =         19 seconds =       0.32 minutes


Properties will be evaluated at   0.000000,   0.000000,   0.000000 Bohr

Properties computed using the  density matrix

  Nuclear Dipole Moment: (a.u.)
     X:    -3.2625      Y:     7.8378      Z:     8.3654

  Electronic Dipole Moment: (a.u.)
     X:     3.0775      Y:    -7.6016      Z:    -7.5389

  Dipole Moment: (a.u.)
     X:    -0.1850      Y:     0.2362      Z:     0.8264     Total:     0.8792

  Dipole Moment: (Debye)
     X:    -0.4702      Y:     0.6004      Z:     2.1006     Total:     2.2347

  Quadrupole Moment: (Debye Ang)
    XX:   -48.6377     YY:   -47.8862     ZZ:   -58.2835
    XY:     3.2559     XZ:    -0.7184     YZ:    -2.0338

  Traceless Quadrupole Moment: (Debye Ang)
    XX:     2.9647     YY:     3.7163     ZZ:    -6.6810
    XY:     3.2559     XZ:    -0.7184     YZ:    -2.0338

  Mulliken Charges: (a.u.)
   Center  Symbol    Alpha    Beta     Spin     Total
       1     H     0.26615  0.26615  0.00000  0.46770
       2     O     4.35326  4.35326  0.00000 -0.70652
       3     C     2.62520  2.62520  0.00000  0.74961
       4     C     3.22102  3.22102  0.00000 -0.44204
       5     O     4.27033  4.27033  0.00000 -0.54066
       6     C     3.15928  3.15928  0.00000 -0.31855
       7     H     0.39536  0.39536  0.00000  0.20928
       8     H     0.39550  0.39550  0.00000  0.20901
       9     C     3.16632  3.16632  0.00000 -0.33264
      10     H     0.40397  0.40397  0.00000  0.19206
      11     H     0.41367  0.41367  0.00000  0.17266
      12     C     3.16090  3.16090  0.00000 -0.32180
      13     H     0.41033  0.41033  0.00000  0.17934
      14     H     0.41703  0.41703  0.00000  0.16595
      15     C     3.24199  3.24199  0.00000 -0.48398
      16     H     0.41627  0.41627  0.00000  0.16747
      17     H     0.42485  0.42485  0.00000  0.15029
      18     H     0.41722  0.41722  0.00000  0.16557
      19     H     0.42034  0.42034  0.00000  0.15933
      20     H     0.42103  0.42103  0.00000  0.15794

   Total alpha = 32.00000, Total beta = 32.00000, Total charge = -0.00000


*** PSI4 exiting successfully. Buy a developer a beer!
