    -----------------------------------------------------------------------
          Psi4: An Open-Source Ab Initio Electronic Structure Package
                              Psi4 (no tag) Driver

                          Git: Rev {detached?}  

    J. M. Turney, A. C. Simmonett, R. M. Parrish, E. G. Hohenstein,
    F. A. Evangelista, J. T. Fermann, B. J. Mintz, L. A. Burns, J. J. Wilke,
    M. L. Abrams, N. J. Russ, M. L. Leininger, C. L. Janssen, E. T. Seidl,
    W. D. Allen, H. F. Schaefer, R. A. King, E. F. Valeev, C. D. Sherrill,
    and T. D. Crawford, WIREs Comput. Mol. Sci. 2, 556-565 (2012)
    (doi: 10.1002/wcms.93)

                         Additional Contributions by
    A. E. DePrince, M. Saitow, U. Bozkaya, A. Yu. Sokolov
    -----------------------------------------------------------------------


    Psi4 started on: Tue Jul  5 16:44:44 2016

    Process ID:   8379
    PSI4DATADIR: /export131/home/mjharvey/miniconda3/share
    Memory level set to 256.000 MB

  ==> Input File <==

--------------------------------------------------------------------------
set {
	reference rhf
	basis 6-31G*
}


set_num_threads( 1 )
memory 2 gb

molecule MOL {
0 1

H	 3.083879	 -1.346558	 0.395444
O	 2.172668	 -1.603300	 0.415122
C	 1.365383	 -0.540424	 0.207814
C	 1.814539	 0.629637	 -0.390951
C	 0.047259	 -0.646849	 0.616048
H	 2.840719	 0.710397	 -0.707919
C	 0.946194	 1.691500	 -0.580936
H	 -0.300966	 -1.550061	 1.078674
C	 -0.815541	 0.420876	 0.422151
H	 1.305302	 2.591872	 -1.045425
C	 -0.372765	 1.593862	 -0.176033
C	 -2.232930	 0.313230	 0.858374
H	 -1.048971	 2.417427	 -0.322627
O	 -2.752304	 -0.693459	 1.220828
H	 -2.797252	 1.250136	 0.826822

	symmetry c1
}
set optking {
	frozen_dihedral = ("
		11 9 12 14
	")
}

ee = energy('scf')
oeprop('DIPOLE', 'QUADRUPOLE', 'MULLIKEN_CHARGES')
f=open( 'psi4out.xyz', 'w' )
f.write( "15  " )
f.write( str(ee) + "\n" )
f.write( MOL.save_string_xyz() )
f.close()
--------------------------------------------------------------------------

  Memory set to   2.000 GiB by Python script.

*** tstart() called on cx1-3-16-3.cx1.hpc.ic.ac.uk
*** at Tue Jul  5 16:44:45 2016


         ---------------------------------------------------------
                                   SCF
            by Justin Turney, Rob Parrish, and Andy Simmonett
                              RHF Reference
                        1 Threads,   2000 MiB Core
         ---------------------------------------------------------

  ==> Geometry <==

    Molecular point group: c1
    Full point group: C1

    Geometry (in Angstrom), charge = 0, multiplicity = 1:

       Center              X                  Y                   Z               Mass       
    ------------   -----------------  -----------------  -----------------  -----------------
           H          3.060433011050    -1.419573741297     0.085117767712     1.007825032070
           O          2.149222011050    -1.676315741297     0.104795767712    15.994914619560
           C          1.341937011050    -0.613439741297    -0.102512232288    12.000000000000
           C          1.791093011050     0.556621258703    -0.701277232288    12.000000000000
           C          0.023813011050    -0.719864741297     0.305721767712    12.000000000000
           H          2.817273011050     0.637381258703    -1.018245232288     1.007825032070
           C          0.922748011050     1.618484258703    -0.891262232288    12.000000000000
           H         -0.324411988950    -1.623076741297     0.768347767712     1.007825032070
           C         -0.838986988950     0.347860258703     0.111824767712    12.000000000000
           H          1.281856011050     2.518856258703    -1.355751232288     1.007825032070
           C         -0.396210988950     1.520846258703    -0.486359232288    12.000000000000
           C         -2.256375988950     0.240214258703     0.548047767712    12.000000000000
           H         -1.072416988950     2.344411258703    -0.632953232288     1.007825032070
           O         -2.775749988950    -0.766474741297     0.910501767712    15.994914619560
           H         -2.820697988950     1.177120258703     0.516495767712     1.007825032070

  Running in c1 symmetry.

  Rotational constants: A =      0.09971  B =      0.04345  C =      0.03030 [cm^-1]
  Rotational constants: A =   2989.29842  B =   1302.63841  C =    908.37719 [MHz]
  Nuclear repulsion =  403.134586752590280

  Charge       = 0
  Multiplicity = 1
  Electrons    = 64
  Nalpha       = 32
  Nbeta        = 32

  ==> Algorithm <==

  SCF Algorithm Type is DF.
  DIIS enabled.
  MOM disabled.
  Fractional occupation disabled.
  Guess Type is CORE.
  Energy threshold   = 1.00e-06
  Density threshold  = 1.00e-06
  Integral threshold = 0.00e+00

  ==> Primary Basis <==

  Basis Set: 6-31G*
    Number of shells: 66
    Number of basis function: 147
    Number of Cartesian functions: 147
    Spherical Harmonics?: false
    Max angular momentum: 2

  ==> Pre-Iterations <==

   -------------------------------------------------------
    Irrep   Nso     Nmo     Nalpha   Nbeta   Ndocc  Nsocc
   -------------------------------------------------------
     A        147     147       0       0       0       0
   -------------------------------------------------------
    Total     147     147      32      32      32       0
   -------------------------------------------------------

 OEINTS: Overlap, kinetic, potential, dipole, and quadrupole integrals
         stored in file 35.

  ==> Integral Setup <==

  ==> DFJK: Density-Fitted J/K Matrices <==

    J tasked:                  Yes
    K tasked:                  Yes
    wK tasked:                  No
    OpenMP threads:              1
    Integrals threads:           1
    Memory (MB):              1430
    Algorithm:                Core
    Integral Cache:           NONE
    Schwarz Cutoff:          1E-12
    Fitting Condition:       1E-12

   => Auxiliary Basis Set <=

  Basis Set: 
    Number of shells: 270
    Number of basis function: 879
    Number of Cartesian functions: 879
    Spherical Harmonics?: false
    Max angular momentum: 3

  Minimum eigenvalue in the overlap matrix is 4.1769809942E-04.
  Using Symmetric Orthogonalization.
  SCF Guess: Core (One-Electron) Hamiltonian.

  ==> Iterations <==

                           Total Energy        Delta E     RMS |[F,P]|

   @DF-RHF iter   1:  -337.33859912067612   -3.37339e+02   6.24112e-02 
   @DF-RHF iter   2:  -259.65005643013205    7.76885e+01   6.56725e-02 DIIS
   @DF-RHF iter   3:  -337.46848165353310   -7.78184e+01   4.79850e-02 DIIS
   @DF-RHF iter   4:  -343.41003931985972   -5.94156e+00   5.55678e-02 DIIS
   @DF-RHF iter   5:  -417.45614210355518   -7.40461e+01   9.03767e-03 DIIS
   @DF-RHF iter   6:  -417.90683341143756   -4.50691e-01   6.48929e-03 DIIS
   @DF-RHF iter   7:  -418.26544340503392   -3.58610e-01   1.08444e-03 DIIS
   @DF-RHF iter   8:  -418.28213844656443   -1.66950e-02   4.31016e-04 DIIS
   @DF-RHF iter   9:  -418.28460741998106   -2.46897e-03   1.70566e-04 DIIS
   @DF-RHF iter  10:  -418.28517342892485   -5.66009e-04   6.30907e-05 DIIS
   @DF-RHF iter  11:  -418.28527421695026   -1.00788e-04   2.23991e-05 DIIS
   @DF-RHF iter  12:  -418.28528686975642   -1.26528e-05   1.32798e-05 DIIS
   @DF-RHF iter  13:  -418.28529431586503   -7.44611e-06   5.50141e-06 DIIS
   @DF-RHF iter  14:  -418.28529610564840   -1.78978e-06   2.17982e-06 DIIS
   @DF-RHF iter  15:  -418.28529641055195   -3.04904e-07   9.19682e-07 DIIS

  ==> Post-Iterations <==

    Orbital Energies (a.u.)
    -----------------------

    Doubly Occupied:                                                      

       1A    -20.600131     2A    -20.564574     3A    -11.332462  
       4A    -11.311751     5A    -11.253017     6A    -11.251741  
       7A    -11.249700     8A    -11.246717     9A    -11.239768  
      10A     -1.420342    11A     -1.405094    12A     -1.169542  
      13A     -1.048627    14A     -1.026905    15A     -0.899619  
      16A     -0.845732    17A     -0.812598    18A     -0.736398  
      19A     -0.701696    20A     -0.685415    21A     -0.639972  
      22A     -0.636385    23A     -0.612268    24A     -0.604909  
      25A     -0.569584    26A     -0.548965    27A     -0.541289  
      28A     -0.512192    29A     -0.486534    30A     -0.423386  
      31A     -0.353326    32A     -0.327197  

    Virtual:                                                              

      33A      0.083551    34A      0.143970    35A      0.211031  
      36A      0.225666    37A      0.239845    38A      0.269060  
      39A      0.308741    40A      0.310165    41A      0.335491  
      42A      0.377699    43A      0.409392    44A      0.443854  
      45A      0.464771    46A      0.478746    47A      0.500559  
      48A      0.570192    49A      0.595423    50A      0.673568  
      51A      0.716828    52A      0.724460    53A      0.731980  
      54A      0.756791    55A      0.765359    56A      0.803809  
      57A      0.813263    58A      0.816748    59A      0.848632  
      60A      0.852234    61A      0.861832    62A      0.879876  
      63A      0.898767    64A      0.940266    65A      0.997325  
      66A      1.002665    67A      1.011091    68A      1.057484  
      69A      1.077903    70A      1.089131    71A      1.106414  
      72A      1.124336    73A      1.132964    74A      1.165299  
      75A      1.182234    76A      1.195844    77A      1.209630  
      78A      1.230611    79A      1.240028    80A      1.299153  
      81A      1.315983    82A      1.335977    83A      1.358909  
      84A      1.402847    85A      1.426231    86A      1.476658  
      87A      1.506188    88A      1.520255    89A      1.535651  
      90A      1.606080    91A      1.640320    92A      1.649482  
      93A      1.715047    94A      1.741766    95A      1.747719  
      96A      1.747948    97A      1.826220    98A      1.844875  
      99A      1.922332   100A      2.029058   101A      2.041257  
     102A      2.045149   103A      2.072441   104A      2.093546  
     105A      2.151153   106A      2.179188   107A      2.228829  
     108A      2.249823   109A      2.273777   110A      2.297411  
     111A      2.306699   112A      2.355003   113A      2.391006  
     114A      2.425540   115A      2.460121   116A      2.491618  
     117A      2.572781   118A      2.613270   119A      2.616548  
     120A      2.649805   121A      2.662425   122A      2.737117  
     123A      2.776850   124A      2.847764   125A      2.896211  
     126A      2.910184   127A      2.961570   128A      3.004651  
     129A      3.034349   130A      3.042529   131A      3.111807  
     132A      3.158019   133A      3.228970   134A      3.305847  
     135A      3.343483   136A      3.418991   137A      3.552540  
     138A      3.837129   139A      4.327651   140A      4.352042  
     141A      4.512414   142A      4.532359   143A      4.609215  
     144A      4.640696   145A      4.777902   146A      4.875231  
     147A      5.186116  

    Final Occupation by Irrep:
              A 
    DOCC [    32 ]

  Energy converged.

  @DF-RHF Final Energy:  -418.28529641055195

   => Energetics <=

    Nuclear Repulsion Energy =            403.1345867525902804
    One-Electron Energy =               -1368.7240205854986925
    Two-Electron Energy =                 547.3041374223569164
    DFT Exchange-Correlation Energy =       0.0000000000000000
    Empirical Dispersion Energy =           0.0000000000000000
    PCM Polarization Energy =               0.0000000000000000
    EFP Energy =                            0.0000000000000000
    Total Energy =                       -418.2852964105514957

    Alert: EFP and PCM quantities not currently incorporated into SCF psivars.

Properties will be evaluated at   0.000000,   0.000000,   0.000000 Bohr
  ==> Properties <==


Properties computed using the SCF density matrix

  Nuclear Dipole Moment: (a.u.)
     X:     2.7551      Y:     3.3961      Z:    -1.5297

  Electronic Dipole Moment: (a.u.)
     X:    -1.4296      Y:    -2.1239      Z:     1.0542

  Dipole Moment: (a.u.)
     X:     1.3255      Y:     1.2721      Z:    -0.4755     Total:     1.8977

  Dipole Moment: (Debye)
     X:     3.3690      Y:     3.2335      Z:    -1.2087     Total:     4.8235


  Saving occupied orbitals to File 180.

*** tstop() called on cx1-3-16-3.cx1.hpc.ic.ac.uk at Tue Jul  5 16:44:59 2016
Module time:
	user time   =      13.76 seconds =       0.23 minutes
	system time =       0.06 seconds =       0.00 minutes
	total time  =         14 seconds =       0.23 minutes
Total time:
	user time   =      13.76 seconds =       0.23 minutes
	system time =       0.06 seconds =       0.00 minutes
	total time  =         14 seconds =       0.23 minutes


Properties will be evaluated at   0.000000,   0.000000,   0.000000 Bohr

Properties computed using the  density matrix

  Nuclear Dipole Moment: (a.u.)
     X:     2.7551      Y:     3.3961      Z:    -1.5297

  Electronic Dipole Moment: (a.u.)
     X:    -1.4296      Y:    -2.1239      Z:     1.0542

  Dipole Moment: (a.u.)
     X:     1.3255      Y:     1.2721      Z:    -0.4755     Total:     1.8977

  Dipole Moment: (Debye)
     X:     3.3690      Y:     3.2335      Z:    -1.2087     Total:     4.8235

  Quadrupole Moment: (Debye Ang)
    XX:   -47.2279     YY:   -51.8304     ZZ:   -53.7786
    XY:    -5.5019     XZ:     1.3164     YZ:    -0.6325

  Traceless Quadrupole Moment: (Debye Ang)
    XX:     3.7177     YY:    -0.8848     ZZ:    -2.8330
    XY:    -5.5019     XZ:     1.3164     YZ:    -0.6325

  Mulliken Charges: (a.u.)
   Center  Symbol    Alpha    Beta     Spin     Total
       1     H     0.27078  0.27078  0.00000  0.45844
       2     O     4.37673  4.37673  0.00000 -0.75347
       3     C     2.79728  2.79728  0.00000  0.40544
       4     C     3.13218  3.13218  0.00000 -0.26436
       5     C     3.11303  3.11303  0.00000 -0.22606
       6     H     0.39801  0.39801  0.00000  0.20397
       7     C     3.09550  3.09550  0.00000 -0.19101
       8     H     0.37071  0.37071  0.00000  0.25858
       9     C     3.04538  3.04538  0.00000 -0.09075
      10     H     0.39304  0.39304  0.00000  0.21392
      11     C     3.11454  3.11454  0.00000 -0.22907
      12     C     2.83352  2.83352  0.00000  0.33296
      13     H     0.39318  0.39318  0.00000  0.21364
      14     O     4.24403  4.24403  0.00000 -0.48806
      15     H     0.42209  0.42209  0.00000  0.15582

   Total alpha = 32.00000, Total beta = 32.00000, Total charge =  0.00000


*** PSI4 exiting successfully. Buy a developer a beer!
