    -----------------------------------------------------------------------
          Psi4: An Open-Source Ab Initio Electronic Structure Package
                              Psi4 (no tag) Driver

                          Git: Rev {detached?}  

    J. M. Turney, A. C. Simmonett, R. M. Parrish, E. G. Hohenstein,
    F. A. Evangelista, J. T. Fermann, B. J. Mintz, L. A. Burns, J. J. Wilke,
    M. L. Abrams, N. J. Russ, M. L. Leininger, C. L. Janssen, E. T. Seidl,
    W. D. Allen, H. F. Schaefer, R. A. King, E. F. Valeev, C. D. Sherrill,
    and T. D. Crawford, WIREs Comput. Mol. Sci. 2, 556-565 (2012)
    (doi: 10.1002/wcms.93)

                         Additional Contributions by
    A. E. DePrince, M. Saitow, U. Bozkaya, A. Yu. Sokolov
    -----------------------------------------------------------------------


    Psi4 started on: Tue Jul  5 16:28:01 2016

    Process ID:  31692
    PSI4DATADIR: /export131/home/mjharvey/miniconda3/share
    Memory level set to 256.000 MB

  ==> Input File <==

--------------------------------------------------------------------------
set {
	reference rhf
	basis 6-31G*
}


set_num_threads( 1 )
memory 2 gb

molecule MOL {
0 1

H	 1.148083	 -1.049780	 0.784252
O	 1.319262	 -0.618148	 -0.041729
C	 0.709265	 0.639550	 -0.033818
C	 -0.203924	 0.875197	 1.140548
H	 0.142101	 0.706352	 -0.955266
H	 1.456002	 1.432068	 -0.070197
C	 -0.564731	 -0.037648	 2.019921
H	 -0.574574	 1.884385	 1.233511
H	 -0.229587	 -1.056426	 1.947816
H	 -1.221468	 0.201428	 2.836937

	symmetry c1
}
set optking {
	frozen_dihedral = ("
		5 3 4 7,
		3 4 7 9
	")
}

ee = energy('scf')
oeprop('DIPOLE', 'QUADRUPOLE', 'MULLIKEN_CHARGES')
f=open( 'psi4out.xyz', 'w' )
f.write( "10  " )
f.write( str(ee) + "\n" )
f.write( MOL.save_string_xyz() )
f.close()
--------------------------------------------------------------------------

  Memory set to   2.000 GiB by Python script.

*** tstart() called on cx1-3-5-2.cx1.hpc.ic.ac.uk
*** at Tue Jul  5 16:28:01 2016


         ---------------------------------------------------------
                                   SCF
            by Justin Turney, Rob Parrish, and Andy Simmonett
                              RHF Reference
                        1 Threads,   2000 MiB Core
         ---------------------------------------------------------

  ==> Geometry <==

    Molecular point group: c1
    Full point group: C1

    Geometry (in Angstrom), charge = 0, multiplicity = 1:

       Center              X                  Y                   Z               Mass       
    ------------   -----------------  -----------------  -----------------  -----------------
           H          0.784293888453    -1.221596742609     0.049013410215     1.007825032070
           O          0.955472888453    -0.789964742609    -0.776967589785    15.994914619560
           C          0.345475888453     0.467733257391    -0.769056589785    12.000000000000
           C         -0.567713111547     0.703380257391     0.405309410215    12.000000000000
           H         -0.221688111547     0.534535257391    -1.690504589785     1.007825032070
           H          1.092212888453     1.260251257391    -0.805435589785     1.007825032070
           C         -0.928520111547    -0.209464742609     1.284682410215    12.000000000000
           H         -0.938363111547     1.712568257391     0.498272410215     1.007825032070
           H         -0.593376111547    -1.228242742609     1.212577410215     1.007825032070
           H         -1.585257111547     0.029611257391     2.101698410215     1.007825032070

  Running in c1 symmetry.

  Rotational constants: A =      0.57861  B =      0.20163  C =      0.15406 [cm^-1]
  Rotational constants: A =  17346.15402  B =   6044.65456  C =   4618.47383 [MHz]
  Nuclear repulsion =  119.849824616063216

  Charge       = 0
  Multiplicity = 1
  Electrons    = 32
  Nalpha       = 16
  Nbeta        = 16

  ==> Algorithm <==

  SCF Algorithm Type is DF.
  DIIS enabled.
  MOM disabled.
  Fractional occupation disabled.
  Guess Type is CORE.
  Energy threshold   = 1.00e-06
  Density threshold  = 1.00e-06
  Integral threshold = 0.00e+00

  ==> Primary Basis <==

  Basis Set: 6-31G*
    Number of shells: 36
    Number of basis function: 72
    Number of Cartesian functions: 72
    Spherical Harmonics?: false
    Max angular momentum: 2

  ==> Pre-Iterations <==

   -------------------------------------------------------
    Irrep   Nso     Nmo     Nalpha   Nbeta   Ndocc  Nsocc
   -------------------------------------------------------
     A         72      72       0       0       0       0
   -------------------------------------------------------
    Total      72      72      16      16      16       0
   -------------------------------------------------------

 OEINTS: Overlap, kinetic, potential, dipole, and quadrupole integrals
         stored in file 35.

  ==> Integral Setup <==

  ==> DFJK: Density-Fitted J/K Matrices <==

    J tasked:                  Yes
    K tasked:                  Yes
    wK tasked:                  No
    OpenMP threads:              1
    Integrals threads:           1
    Memory (MB):              1430
    Algorithm:                Core
    Integral Cache:           NONE
    Schwarz Cutoff:          1E-12
    Fitting Condition:       1E-12

   => Auxiliary Basis Set <=

  Basis Set: 
    Number of shells: 150
    Number of basis function: 474
    Number of Cartesian functions: 474
    Spherical Harmonics?: false
    Max angular momentum: 3

  Minimum eigenvalue in the overlap matrix is 3.7235855756E-03.
  Using Symmetric Orthogonalization.
  SCF Guess: Core (One-Electron) Hamiltonian.

  ==> Iterations <==

                           Total Energy        Delta E     RMS |[F,P]|

   @DF-RHF iter   1:  -158.40728265861648   -1.58407e+02   8.88931e-02 
   @DF-RHF iter   2:  -125.38201146665466    3.30253e+01   8.09838e-02 DIIS
   @DF-RHF iter   3:  -168.89543668187079   -4.35134e+01   5.78009e-02 DIIS
   @DF-RHF iter   4:  -188.43880953981406   -1.95434e+01   3.29471e-02 DIIS
   @DF-RHF iter   5:  -191.74128439780711   -3.30247e+00   8.51591e-03 DIIS
   @DF-RHF iter   6:  -191.87234813089347   -1.31064e-01   3.63096e-03 DIIS
   @DF-RHF iter   7:  -191.90378459133993   -3.14365e-02   1.57026e-03 DIIS
   @DF-RHF iter   8:  -191.91047382427107   -6.68923e-03   4.29492e-04 DIIS
   @DF-RHF iter   9:  -191.91109580540470   -6.21981e-04   1.18975e-04 DIIS
   @DF-RHF iter  10:  -191.91115742793082   -6.16225e-05   3.45469e-05 DIIS
   @DF-RHF iter  11:  -191.91116354871136   -6.12078e-06   1.49107e-05 DIIS
   @DF-RHF iter  12:  -191.91116480627610   -1.25756e-06   4.45570e-06 DIIS
   @DF-RHF iter  13:  -191.91116491693217   -1.10656e-07   9.91229e-07 DIIS

  ==> Post-Iterations <==

    Orbital Energies (a.u.)
    -----------------------

    Doubly Occupied:                                                      

       1A    -20.555557     2A    -11.278432     3A    -11.243749  
       4A    -11.232090     5A     -1.367173     6A     -1.067256  
       7A     -0.936017     8A     -0.775033     9A     -0.695996  
      10A     -0.653936    11A     -0.631052    12A     -0.569766  
      13A     -0.553643    14A     -0.486659    15A     -0.451472  
      16A     -0.373414  

    Virtual:                                                              

      17A      0.174965    18A      0.233961    19A      0.253181  
      20A      0.294895    21A      0.333147    22A      0.338718  
      23A      0.353198    24A      0.393544    25A      0.464521  
      26A      0.568363    27A      0.728252    28A      0.755029  
      29A      0.773875    30A      0.818642    31A      0.856708  
      32A      0.895359    33A      0.903023    34A      0.926903  
      35A      1.008996    36A      1.087208    37A      1.118878  
      38A      1.142318    39A      1.161965    40A      1.199473  
      41A      1.226272    42A      1.281361    43A      1.322720  
      44A      1.348599    45A      1.410035    46A      1.488437  
      47A      1.553038    48A      1.627792    49A      1.762782  
      50A      1.807940    51A      1.954670    52A      1.995691  
      53A      2.047828    54A      2.138978    55A      2.264802  
      56A      2.280565    57A      2.335194    58A      2.479422  
      59A      2.519598    60A      2.578307    61A      2.693224  
      62A      2.714022    63A      2.815362    64A      2.823372  
      65A      2.857119    66A      3.078161    67A      3.239165  
      68A      3.319716    69A      4.231162    70A      4.529312  
      71A      4.634235    72A      4.856926  

    Final Occupation by Irrep:
              A 
    DOCC [    16 ]

  Energy converged.

  @DF-RHF Final Energy:  -191.91116491693217

   => Energetics <=

    Nuclear Repulsion Energy =            119.8498246160632164
    One-Electron Energy =                -497.7794004863997088
    Two-Electron Energy =                 186.0184109534042989
    DFT Exchange-Correlation Energy =       0.0000000000000000
    Empirical Dispersion Energy =           0.0000000000000000
    PCM Polarization Energy =               0.0000000000000000
    EFP Energy =                            0.0000000000000000
    Total Energy =                       -191.9111649169322220

    Alert: EFP and PCM quantities not currently incorporated into SCF psivars.

Properties will be evaluated at   0.000000,   0.000000,   0.000000 Bohr
  ==> Properties <==


Properties computed using the SCF density matrix

  Nuclear Dipole Moment: (a.u.)
     X:    -1.3662      Y:     1.0154      Z:     1.2765

  Electronic Dipole Moment: (a.u.)
     X:     0.9461      Y:    -0.6570      Z:    -0.7528

  Dipole Moment: (a.u.)
     X:    -0.4200      Y:     0.3584      Z:     0.5237     Total:     0.7610

  Dipole Moment: (Debye)
     X:    -1.0676      Y:     0.9109      Z:     1.3312     Total:     1.9343


  Saving occupied orbitals to File 180.

*** tstop() called on cx1-3-5-2.cx1.hpc.ic.ac.uk at Tue Jul  5 16:28:04 2016
Module time:
	user time   =       2.28 seconds =       0.04 minutes
	system time =       0.03 seconds =       0.00 minutes
	total time  =          3 seconds =       0.05 minutes
Total time:
	user time   =       2.28 seconds =       0.04 minutes
	system time =       0.03 seconds =       0.00 minutes
	total time  =          3 seconds =       0.05 minutes


Properties will be evaluated at   0.000000,   0.000000,   0.000000 Bohr

Properties computed using the  density matrix

  Nuclear Dipole Moment: (a.u.)
     X:    -1.3662      Y:     1.0154      Z:     1.2765

  Electronic Dipole Moment: (a.u.)
     X:     0.9461      Y:    -0.6570      Z:    -0.7528

  Dipole Moment: (a.u.)
     X:    -0.4200      Y:     0.3584      Z:     0.5237     Total:     0.7610

  Dipole Moment: (Debye)
     X:    -1.0676      Y:     0.9109      Z:     1.3312     Total:     1.9343

  Quadrupole Moment: (Debye Ang)
    XX:   -27.4306     YY:   -22.9753     ZZ:   -25.7194
    XY:     0.3347     XZ:     0.7693     YZ:    -3.0864

  Traceless Quadrupole Moment: (Debye Ang)
    XX:    -2.0555     YY:     2.3998     ZZ:    -0.3443
    XY:     0.3347     XZ:     0.7693     YZ:    -3.0864

  Mulliken Charges: (a.u.)
   Center  Symbol    Alpha    Beta     Spin     Total
       1     H     0.27403  0.27403  0.00000  0.45194
       2     O     4.37716  4.37716  0.00000 -0.75431
       3     C     2.98848  2.98848  0.00000  0.02305
       4     C     3.08898  3.08898  0.00000 -0.17796
       5     H     0.41447  0.41447  0.00000  0.17105
       6     H     0.42078  0.42078  0.00000  0.15844
       7     C     3.20901  3.20901  0.00000 -0.41801
       8     H     0.40455  0.40455  0.00000  0.19089
       9     H     0.41860  0.41860  0.00000  0.16280
      10     H     0.40395  0.40395  0.00000  0.19211

   Total alpha = 16.00000, Total beta = 16.00000, Total charge = -0.00000


*** PSI4 exiting successfully. Buy a developer a beer!
