    -----------------------------------------------------------------------
          Psi4: An Open-Source Ab Initio Electronic Structure Package
                              Psi4 (no tag) Driver

                          Git: Rev {detached?}  

    J. M. Turney, A. C. Simmonett, R. M. Parrish, E. G. Hohenstein,
    F. A. Evangelista, J. T. Fermann, B. J. Mintz, L. A. Burns, J. J. Wilke,
    M. L. Abrams, N. J. Russ, M. L. Leininger, C. L. Janssen, E. T. Seidl,
    W. D. Allen, H. F. Schaefer, R. A. King, E. F. Valeev, C. D. Sherrill,
    and T. D. Crawford, WIREs Comput. Mol. Sci. 2, 556-565 (2012)
    (doi: 10.1002/wcms.93)

                         Additional Contributions by
    A. E. DePrince, M. Saitow, U. Bozkaya, A. Yu. Sokolov
    -----------------------------------------------------------------------


    Psi4 started on: Tue Jul  5 17:55:07 2016

    Process ID:  23244
    PSI4DATADIR: /export131/home/mjharvey/miniconda3/share
    Memory level set to 256.000 MB

  ==> Input File <==

--------------------------------------------------------------------------
set {
	reference rhf
	basis 6-31G*
}


set_num_threads( 1 )
memory 2 gb

molecule MOL {
0 1

O	 3.225979	 0.970355	 -0.599647
C	 2.701189	 0.057885	 -0.047330
C	 1.245376	 -0.013843	 0.345420
O	 3.347903	 -1.046386	 0.304773
C	 0.455112	 1.231400	 -0.050772
H	 0.838542	 -0.913825	 -0.103701
H	 1.208210	 -0.175333	 1.419774
C	 -0.998893	 1.219485	 0.433193
H	 0.482531	 1.345121	 -1.130325
H	 0.957290	 2.103070	 0.354729
C	 -1.883438	 0.145884	 -0.207175
H	 -1.431207	 2.195402	 0.224832
H	 -1.019646	 1.105716	 1.516076
C	 -2.812651	 -0.536982	 0.798438
H	 -2.479883	 0.598675	 -0.997779
H	 -1.266556	 -0.611475	 -0.685544
C	 -2.071261	 -1.407846	 1.814346
H	 -3.535947	 -1.148791	 0.262000
H	 -3.388683	 0.220151	 1.328188
C	 -0.873286	 -0.700041	 2.446460
H	 -2.762066	 -1.715610	 2.596466
H	 -1.734812	 -2.321251	 1.328266
H	 -0.368696	 -1.342437	 3.161528
H	 -1.181650	 0.200096	 2.970731
H	 -0.146847	 -0.409712	 1.692624
C	 4.728119	 -1.109107	 -0.004993
H	 4.882018	 -1.033965	 -1.071845
H	 5.068212	 -2.067527	 0.355250
H	 5.265056	 -0.311663	 0.488280

	symmetry c1
}
set optking {
	frozen_dihedral = ("
		21 17 14 11,
		17 14 11 15,
		6 3 5 9,
		11 8 5 9,
		2 4 26 27,
		1 2 4 26,
		6 3 2 1
	")
}

ee = energy('scf')
oeprop('DIPOLE', 'QUADRUPOLE', 'MULLIKEN_CHARGES')
f=open( 'psi4out.xyz', 'w' )
f.write( "29  " )
f.write( str(ee) + "\n" )
f.write( MOL.save_string_xyz() )
f.close()
--------------------------------------------------------------------------

  Memory set to   2.000 GiB by Python script.

*** tstart() called on cx1-3-14-1.cx1.hpc.ic.ac.uk
*** at Tue Jul  5 17:55:08 2016


         ---------------------------------------------------------
                                   SCF
            by Justin Turney, Rob Parrish, and Andy Simmonett
                              RHF Reference
                        1 Threads,   2000 MiB Core
         ---------------------------------------------------------

  ==> Geometry <==

    Molecular point group: c1
    Full point group: C1

    Geometry (in Angstrom), charge = 0, multiplicity = 1:

       Center              X                  Y                   Z               Mass       
    ------------   -----------------  -----------------  -----------------  -----------------
           O          2.527740392419     1.089819260756    -1.076666306453    15.994914619560
           C          2.002950392419     0.177349260756    -0.524349306453    12.000000000000
           C          0.547137392419     0.105621260756    -0.131599306453    12.000000000000
           O          2.649664392419    -0.926921739244    -0.172246306453    15.994914619560
           C         -0.243126607581     1.350864260756    -0.527791306453    12.000000000000
           H          0.140303392419    -0.794360739244    -0.580720306453     1.007825032070
           H          0.509971392419    -0.055868739244     0.942754693547     1.007825032070
           C         -1.697131607581     1.338949260756    -0.043826306453    12.000000000000
           H         -0.215707607581     1.464585260756    -1.607344306453     1.007825032070
           H          0.259051392419     2.222534260756    -0.122290306453     1.007825032070
           C         -2.581676607581     0.265348260756    -0.684194306453    12.000000000000
           H         -2.129445607581     2.314866260756    -0.252187306453     1.007825032070
           H         -1.717884607581     1.225180260756     1.039056693547     1.007825032070
           C         -3.510889607581    -0.417517739244     0.321418693547    12.000000000000
           H         -3.178121607581     0.718139260756    -1.474798306453     1.007825032070
           H         -1.964794607581    -0.492010739244    -1.162563306453     1.007825032070
           C         -2.769499607581    -1.288381739244     1.337326693547    12.000000000000
           H         -4.234185607581    -1.029326739244    -0.215019306453     1.007825032070
           H         -4.086921607581     0.339615260756     0.851168693547     1.007825032070
           C         -1.571524607581    -0.580576739244     1.969440693547    12.000000000000
           H         -3.460304607581    -1.596145739244     2.119446693547     1.007825032070
           H         -2.433050607581    -2.201786739244     0.851246693547     1.007825032070
           H         -1.066934607581    -1.222972739244     2.684508693547     1.007825032070
           H         -1.879888607581     0.319560260756     2.493711693547     1.007825032070
           H         -0.845085607581    -0.290247739244     1.215604693547     1.007825032070
           C          4.029880392419    -0.989642739244    -0.482012306453    12.000000000000
           H          4.183779392419    -0.914500739244    -1.548864306453     1.007825032070
           H          4.369973392419    -1.948062739244    -0.121769306453     1.007825032070
           H          4.566817392419    -0.192198739244     0.011260693547     1.007825032070

  Running in c1 symmetry.

  Rotational constants: A =      0.06890  B =      0.01574  C =      0.01387 [cm^-1]
  Rotational constants: A =   2065.62750  B =    471.90349  C =    415.72115 [MHz]
  Nuclear repulsion =  656.474711122825738

  Charge       = 0
  Multiplicity = 1
  Electrons    = 88
  Nalpha       = 44
  Nbeta        = 44

  ==> Algorithm <==

  SCF Algorithm Type is DF.
  DIIS enabled.
  MOM disabled.
  Fractional occupation disabled.
  Guess Type is CORE.
  Energy threshold   = 1.00e-06
  Density threshold  = 1.00e-06
  Integral threshold = 0.00e+00

  ==> Primary Basis <==

  Basis Set: 6-31G*
    Number of shells: 102
    Number of basis function: 201
    Number of Cartesian functions: 201
    Spherical Harmonics?: false
    Max angular momentum: 2

  ==> Pre-Iterations <==

   -------------------------------------------------------
    Irrep   Nso     Nmo     Nalpha   Nbeta   Ndocc  Nsocc
   -------------------------------------------------------
     A        201     201       0       0       0       0
   -------------------------------------------------------
    Total     201     201      44      44      44       0
   -------------------------------------------------------

 OEINTS: Overlap, kinetic, potential, dipole, and quadrupole integrals
         stored in file 35.

  ==> Integral Setup <==

  ==> DFJK: Density-Fitted J/K Matrices <==

    J tasked:                  Yes
    K tasked:                  Yes
    wK tasked:                  No
    OpenMP threads:              1
    Integrals threads:           1
    Memory (MB):              1430
    Algorithm:                Core
    Integral Cache:           NONE
    Schwarz Cutoff:          1E-12
    Fitting Condition:       1E-12

   => Auxiliary Basis Set <=

  Basis Set: 
    Number of shells: 426
    Number of basis function: 1341
    Number of Cartesian functions: 1341
    Spherical Harmonics?: false
    Max angular momentum: 3

  Minimum eigenvalue in the overlap matrix is 2.4161471051E-03.
  Using Symmetric Orthogonalization.
  SCF Guess: Core (One-Electron) Hamiltonian.

  ==> Iterations <==

                           Total Energy        Delta E     RMS |[F,P]|

   @DF-RHF iter   1:  -347.60379530678324   -3.47604e+02   5.74497e-02 
   @DF-RHF iter   2:  -199.74468682954978    1.47859e+02   6.22944e-02 DIIS
   @DF-RHF iter   3:  -324.94552535751507   -1.25201e+02   5.50231e-02 DIIS
   @DF-RHF iter   4:  -351.49875692176386   -2.65532e+01   4.86686e-02 DIIS
   @DF-RHF iter   5:  -369.82860972435083   -1.83299e+01   5.54960e-02 DIIS
   @DF-RHF iter   6:  -498.05628590118090   -1.28228e+02   1.05351e-02 DIIS
   @DF-RHF iter   7:  -497.56733662767715    4.88949e-01   9.14372e-03 DIIS
   @DF-RHF iter   8:  -500.91227701018738   -3.34494e+00   1.74124e-03 DIIS
   @DF-RHF iter   9:  -500.98137825013805   -6.91012e-02   4.88679e-04 DIIS
   @DF-RHF iter  10:  -500.98686274082456   -5.48449e-03   1.73159e-04 DIIS
   @DF-RHF iter  11:  -500.98782819783310   -9.65457e-04   4.40685e-05 DIIS
   @DF-RHF iter  12:  -500.98790071541430   -7.25176e-05   2.40146e-05 DIIS
   @DF-RHF iter  13:  -500.98791486248183   -1.41471e-05   6.31944e-06 DIIS
   @DF-RHF iter  14:  -500.98791680238060   -1.93990e-06   2.58202e-06 DIIS
   @DF-RHF iter  15:  -500.98791708446652   -2.82086e-07   7.31205e-07 DIIS

  ==> Post-Iterations <==

    Orbital Energies (a.u.)
    -----------------------

    Doubly Occupied:                                                      

       1A    -20.603670     2A    -20.544902     3A    -11.371623  
       4A    -11.280876     5A    -11.233896     6A    -11.219593  
       7A    -11.216906     8A    -11.214499     9A    -11.213798  
      10A    -11.208224    11A    -11.202982    12A     -1.469141  
      13A     -1.362444    14A     -1.108827    15A     -1.065038  
      16A     -1.014727    17A     -0.980005    18A     -0.934402  
      19A     -0.878908    20A     -0.800136    21A     -0.781484  
      22A     -0.765211    23A     -0.712237    24A     -0.683236  
      25A     -0.672856    26A     -0.644748    27A     -0.635046  
      28A     -0.619782    29A     -0.595504    30A     -0.583280  
      31A     -0.560723    32A     -0.558078    33A     -0.538656  
      34A     -0.534401    35A     -0.521827    36A     -0.505070  
      37A     -0.502214    38A     -0.478519    39A     -0.470738  
      40A     -0.456987    41A     -0.454378    42A     -0.445653  
      43A     -0.436422    44A     -0.419028  

    Virtual:                                                              

      45A      0.196789    46A      0.231226    47A      0.242853  
      48A      0.255886    49A      0.263811    50A      0.264361  
      51A      0.292145    52A      0.298350    53A      0.310466  
      54A      0.312014    55A      0.319427    56A      0.320603  
      57A      0.328558    58A      0.330604    59A      0.341800  
      60A      0.345079    61A      0.360803    62A      0.367666  
      63A      0.386218    64A      0.402186    65A      0.417329  
      66A      0.420936    67A      0.441591    68A      0.457531  
      69A      0.476056    70A      0.496969    71A      0.511179  
      72A      0.577860    73A      0.598395    74A      0.715245  
      75A      0.720158    76A      0.724355    77A      0.737605  
      78A      0.743554    79A      0.752089    80A      0.767499  
      81A      0.774092    82A      0.785575    83A      0.806453  
      84A      0.840981    85A      0.869039    86A      0.891439  
      87A      0.913907    88A      0.918042    89A      0.946828  
      90A      0.952909    91A      0.970749    92A      0.984789  
      93A      0.995663    94A      1.002625    95A      1.024183  
      96A      1.048194    97A      1.079373    98A      1.111602  
      99A      1.127877   100A      1.129786   101A      1.137220  
     102A      1.138353   103A      1.147062   104A      1.154229  
     105A      1.158776   106A      1.178870   107A      1.184398  
     108A      1.189562   109A      1.205585   110A      1.208313  
     111A      1.212307   112A      1.229870   113A      1.241262  
     114A      1.247284   115A      1.249568   116A      1.260643  
     117A      1.283065   118A      1.296351   119A      1.302682  
     120A      1.323790   121A      1.351159   122A      1.359819  
     123A      1.375762   124A      1.411131   125A      1.417539  
     126A      1.552878   127A      1.604977   128A      1.656562  
     129A      1.666599   130A      1.677629   131A      1.701954  
     132A      1.757317   133A      1.776658   134A      1.802115  
     135A      1.855210   136A      1.864884   137A      1.879321  
     138A      1.895119   139A      1.935430   140A      1.970704  
     141A      1.989238   142A      2.012312   143A      2.035423  
     144A      2.079447   145A      2.097484   146A      2.135845  
     147A      2.157756   148A      2.195919   149A      2.214289  
     150A      2.217963   151A      2.244695   152A      2.254155  
     153A      2.297690   154A      2.311007   155A      2.326229  
     156A      2.340398   157A      2.360365   158A      2.372322  
     159A      2.399666   160A      2.407275   161A      2.423970  
     162A      2.445002   163A      2.479819   164A      2.513530  
     165A      2.521778   166A      2.599303   167A      2.617830  
     168A      2.668013   169A      2.695355   170A      2.698025  
     171A      2.702246   172A      2.725392   173A      2.734204  
     174A      2.737425   175A      2.760700   176A      2.809987  
     177A      2.843957   178A      2.863048   179A      2.916970  
     180A      2.936420   181A      2.989675   182A      3.035068  
     183A      3.052961   184A      3.071028   185A      3.097724  
     186A      3.145911   187A      3.166401   188A      3.350299  
     189A      3.450999   190A      3.584223   191A      4.419108  
     192A      4.564497   193A      4.601422   194A      4.636336  
     195A      4.696836   196A      4.757748   197A      4.833202  
     198A      4.853221   199A      4.961882   200A      4.977781  
     201A      5.067129  

    Final Occupation by Irrep:
              A 
    DOCC [    44 ]

  Energy converged.

  @DF-RHF Final Energy:  -500.98791708446652

   => Energetics <=

    Nuclear Repulsion Energy =            656.4747111228257381
    One-Electron Energy =               -1983.9237071339780414
    Two-Electron Energy =                 826.4610789266861275
    DFT Exchange-Correlation Energy =       0.0000000000000000
    Empirical Dispersion Energy =           0.0000000000000000
    PCM Polarization Energy =               0.0000000000000000
    EFP Energy =                            0.0000000000000000
    Total Energy =                       -500.9879170844661758

    Alert: EFP and PCM quantities not currently incorporated into SCF psivars.

Properties will be evaluated at   0.000000,   0.000000,   0.000000 Bohr
  ==> Properties <==


Properties computed using the SCF density matrix

  Nuclear Dipole Moment: (a.u.)
     X:   -12.3332      Y:    -1.9988      Z:     4.7968

  Electronic Dipole Moment: (a.u.)
     X:    12.1869      Y:     1.3780      Z:    -4.4633

  Dipole Moment: (a.u.)
     X:    -0.1463      Y:    -0.6209      Z:     0.3335     Total:     0.7198

  Dipole Moment: (Debye)
     X:    -0.3719      Y:    -1.5781      Z:     0.8477     Total:     1.8296


  Saving occupied orbitals to File 180.

*** tstop() called on cx1-3-14-1.cx1.hpc.ic.ac.uk at Tue Jul  5 17:56:02 2016
Module time:
	user time   =      54.00 seconds =       0.90 minutes
	system time =       0.43 seconds =       0.01 minutes
	total time  =         54 seconds =       0.90 minutes
Total time:
	user time   =      54.00 seconds =       0.90 minutes
	system time =       0.43 seconds =       0.01 minutes
	total time  =         54 seconds =       0.90 minutes


Properties will be evaluated at   0.000000,   0.000000,   0.000000 Bohr

Properties computed using the  density matrix

  Nuclear Dipole Moment: (a.u.)
     X:   -12.3332      Y:    -1.9988      Z:     4.7968

  Electronic Dipole Moment: (a.u.)
     X:    12.1869      Y:     1.3780      Z:    -4.4633

  Dipole Moment: (a.u.)
     X:    -0.1463      Y:    -0.6209      Z:     0.3335     Total:     0.7198

  Dipole Moment: (Debye)
     X:    -0.3719      Y:    -1.5781      Z:     0.8477     Total:     1.8296

  Quadrupole Moment: (Debye Ang)
    XX:   -66.2133     YY:   -73.1667     ZZ:   -71.3459
    XY:    -6.8054     XZ:     2.3094     YZ:     3.6603

  Traceless Quadrupole Moment: (Debye Ang)
    XX:     4.0286     YY:    -2.9247     ZZ:    -1.1039
    XY:    -6.8054     XZ:     2.3094     YZ:     3.6603

  Mulliken Charges: (a.u.)
   Center  Symbol    Alpha    Beta     Spin     Total
       1     O     4.28596  4.28596  0.00000 -0.57193
       2     C     2.59659  2.59659  0.00000  0.80682
       3     C     3.23325  3.23325  0.00000 -0.46650
       4     O     4.30765  4.30765  0.00000 -0.61529
       5     C     3.14750  3.14750  0.00000 -0.29500
       6     H     0.39620  0.39620  0.00000  0.20760
       7     H     0.38735  0.38735  0.00000  0.22530
       8     C     3.17501  3.17501  0.00000 -0.35002
       9     H     0.41157  0.41157  0.00000  0.17687
      10     H     0.40870  0.40870  0.00000  0.18260
      11     C     3.15794  3.15794  0.00000 -0.31588
      12     H     0.41691  0.41691  0.00000  0.16618
      13     H     0.41134  0.41134  0.00000  0.17732
      14     C     3.15681  3.15681  0.00000 -0.31362
      15     H     0.41622  0.41622  0.00000  0.16756
      16     H     0.42428  0.42428  0.00000  0.15144
      17     C     3.14608  3.14608  0.00000 -0.29216
      18     H     0.42017  0.42017  0.00000  0.15965
      19     H     0.42324  0.42324  0.00000  0.15353
      20     C     3.24226  3.24226  0.00000 -0.48452
      21     H     0.41988  0.41988  0.00000  0.16024
      22     H     0.42337  0.42337  0.00000  0.15327
      23     H     0.41906  0.41906  0.00000  0.16188
      24     H     0.41751  0.41751  0.00000  0.16499
      25     H     0.43623  0.43623  0.00000  0.12754
      26     C     3.09244  3.09244  0.00000 -0.18487
      27     H     0.40899  0.40899  0.00000  0.18203
      28     H     0.40844  0.40844  0.00000  0.18312
      29     H     0.40907  0.40907  0.00000  0.18186

   Total alpha = 44.00000, Total beta = 44.00000, Total charge =  0.00000


*** PSI4 exiting successfully. Buy a developer a beer!
