    -----------------------------------------------------------------------
          Psi4: An Open-Source Ab Initio Electronic Structure Package
                              Psi4 (no tag) Driver

                          Git: Rev {detached?}  

    J. M. Turney, A. C. Simmonett, R. M. Parrish, E. G. Hohenstein,
    F. A. Evangelista, J. T. Fermann, B. J. Mintz, L. A. Burns, J. J. Wilke,
    M. L. Abrams, N. J. Russ, M. L. Leininger, C. L. Janssen, E. T. Seidl,
    W. D. Allen, H. F. Schaefer, R. A. King, E. F. Valeev, C. D. Sherrill,
    and T. D. Crawford, WIREs Comput. Mol. Sci. 2, 556-565 (2012)
    (doi: 10.1002/wcms.93)

                         Additional Contributions by
    A. E. DePrince, M. Saitow, U. Bozkaya, A. Yu. Sokolov
    -----------------------------------------------------------------------


    Psi4 started on: Tue Jul  5 16:43:27 2016

    Process ID:   3680
    PSI4DATADIR: /export131/home/mjharvey/miniconda3/share
    Memory level set to 256.000 MB

  ==> Input File <==

--------------------------------------------------------------------------
set {
	reference rhf
	basis 6-31G*
}


set_num_threads( 1 )
memory 2 gb

molecule MOL {
0 1

O	 -2.042549	 -1.228399	 -0.269030
C	 -1.653912	 -0.146171	 0.050137
C	 -0.332303	 0.024011	 0.778412
C	 -2.438579	 1.106236	 -0.272369
C	 0.845713	 -0.001731	 -0.208243
H	 -0.323783	 0.953829	 1.340327
H	 -0.235459	 -0.796807	 1.480410
C	 2.200309	 0.136118	 0.488247
H	 0.733710	 0.800019	 -0.936072
H	 0.811185	 -0.933796	 -0.764304
C	 3.005517	 1.332787	 -0.016559
H	 2.047400	 0.229325	 1.561260
H	 2.774037	 -0.775424	 0.338263
H	 2.471799	 2.264042	 0.150658
H	 3.202175	 1.251221	 -1.081508
H	 3.961591	 1.403818	 0.492268
H	 -3.277823	 0.863061	 -0.908988
H	 -1.806773	 1.843019	 -0.759671
H	 -2.802853	 1.554979	 0.648059

	symmetry c1
}
set optking {
	frozen_dihedral = ("
		9 5 3 2,
		5 3 2 4
	")
}

ee = energy('scf')
oeprop('DIPOLE', 'QUADRUPOLE', 'MULLIKEN_CHARGES')
f=open( 'psi4out.xyz', 'w' )
f.write( "19  " )
f.write( str(ee) + "\n" )
f.write( MOL.save_string_xyz() )
f.close()
--------------------------------------------------------------------------

  Memory set to   2.000 GiB by Python script.

*** tstart() called on cx1-1-2-2.cx1.hpc.ic.ac.uk
*** at Tue Jul  5 16:43:27 2016


         ---------------------------------------------------------
                                   SCF
            by Justin Turney, Rob Parrish, and Andy Simmonett
                              RHF Reference
                        1 Threads,   2000 MiB Core
         ---------------------------------------------------------

  ==> Geometry <==

    Molecular point group: c1
    Full point group: C1

    Geometry (in Angstrom), charge = 0, multiplicity = 1:

       Center              X                  Y                   Z               Mass       
    ------------   -----------------  -----------------  -----------------  -----------------
           O         -1.987246805326    -1.413153834154    -0.340019976880    15.994914619560
           C         -1.598609805326    -0.330925834154    -0.020852976880    12.000000000000
           C         -0.277000805326    -0.160743834154     0.707422023120    12.000000000000
           C         -2.383276805326     0.921481165846    -0.343358976880    12.000000000000
           C          0.901015194674    -0.186485834154    -0.279232976880    12.000000000000
           H         -0.268480805326     0.769074165846     1.269337023120     1.007825032070
           H         -0.180156805326    -0.981561834154     1.409420023120     1.007825032070
           C          2.255611194674    -0.048636834154     0.417257023120    12.000000000000
           H          0.789012194674     0.615264165846    -1.007061976880     1.007825032070
           H          0.866487194674    -1.118550834154    -0.835293976880     1.007825032070
           C          3.060819194674     1.148032165846    -0.087548976880    12.000000000000
           H          2.102702194674     0.044570165846     1.490270023120     1.007825032070
           H          2.829339194674    -0.960178834154     0.267273023120     1.007825032070
           H          2.527101194674     2.079287165846     0.079668023120     1.007825032070
           H          3.257477194674     1.066466165846    -1.152497976880     1.007825032070
           H          4.016893194674     1.219063165846     0.421278023120     1.007825032070
           H         -3.222520805326     0.678306165846    -0.979977976880     1.007825032070
           H         -1.751470805326     1.658264165846    -0.830660976880     1.007825032070
           H         -2.747550805326     1.370224165846     0.577069023120     1.007825032070

  Running in c1 symmetry.

  Rotational constants: A =      0.19652  B =      0.03746  C =      0.03417 [cm^-1]
  Rotational constants: A =   5891.59768  B =   1122.99634  C =   1024.43657 [MHz]
  Nuclear repulsion =  302.467393010651449

  Charge       = 0
  Multiplicity = 1
  Electrons    = 56
  Nalpha       = 28
  Nbeta        = 28

  ==> Algorithm <==

  SCF Algorithm Type is DF.
  DIIS enabled.
  MOM disabled.
  Fractional occupation disabled.
  Guess Type is CORE.
  Energy threshold   = 1.00e-06
  Density threshold  = 1.00e-06
  Integral threshold = 0.00e+00

  ==> Primary Basis <==

  Basis Set: 6-31G*
    Number of shells: 66
    Number of basis function: 129
    Number of Cartesian functions: 129
    Spherical Harmonics?: false
    Max angular momentum: 2

  ==> Pre-Iterations <==

   -------------------------------------------------------
    Irrep   Nso     Nmo     Nalpha   Nbeta   Ndocc  Nsocc
   -------------------------------------------------------
     A        129     129       0       0       0       0
   -------------------------------------------------------
    Total     129     129      28      28      28       0
   -------------------------------------------------------

 OEINTS: Overlap, kinetic, potential, dipole, and quadrupole integrals
         stored in file 35.

  ==> Integral Setup <==

  ==> DFJK: Density-Fitted J/K Matrices <==

    J tasked:                  Yes
    K tasked:                  Yes
    wK tasked:                  No
    OpenMP threads:              1
    Integrals threads:           1
    Memory (MB):              1430
    Algorithm:                Core
    Integral Cache:           NONE
    Schwarz Cutoff:          1E-12
    Fitting Condition:       1E-12

   => Auxiliary Basis Set <=

  Basis Set: 
    Number of shells: 276
    Number of basis function: 867
    Number of Cartesian functions: 867
    Spherical Harmonics?: false
    Max angular momentum: 3

  Minimum eigenvalue in the overlap matrix is 3.3796991173E-03.
  Using Symmetric Orthogonalization.
  SCF Guess: Core (One-Electron) Hamiltonian.

  ==> Iterations <==

                           Total Energy        Delta E     RMS |[F,P]|

   @DF-RHF iter   1:  -234.45162052177795   -2.34452e+02   6.94013e-02 
   @DF-RHF iter   2:  -184.37007279512341    5.00815e+01   6.07428e-02 DIIS
   @DF-RHF iter   3:  -272.27266273240662   -8.79026e+01   4.32555e-02 DIIS
   @DF-RHF iter   4:  -279.43733600681844   -7.16467e+00   4.42306e-02 DIIS
   @DF-RHF iter   5:  -299.14661892238985   -1.97093e+01   2.58838e-02 DIIS
   @DF-RHF iter   6:  -308.68146680754865   -9.53485e+00   6.39231e-03 DIIS
   @DF-RHF iter   7:  -308.98195239901747   -3.00486e-01   2.88921e-03 DIIS
   @DF-RHF iter   8:  -309.03672773704534   -5.47753e-02   1.54013e-03 DIIS
   @DF-RHF iter   9:  -309.05443487019352   -1.77071e-02   5.95039e-04 DIIS
   @DF-RHF iter  10:  -309.05856543342281   -4.13056e-03   1.95124e-04 DIIS
   @DF-RHF iter  11:  -309.05907620197502   -5.10769e-04   4.96400e-05 DIIS
   @DF-RHF iter  12:  -309.05911799573312   -4.17938e-05   1.29173e-05 DIIS
   @DF-RHF iter  13:  -309.05912205474363   -4.05901e-06   4.61426e-06 DIIS
   @DF-RHF iter  14:  -309.05912248331572   -4.28572e-07   1.66653e-06 DIIS
   @DF-RHF iter  15:  -309.05912255279964   -6.94839e-08   4.92677e-07 DIIS

  ==> Post-Iterations <==

    Orbital Energies (a.u.)
    -----------------------

    Doubly Occupied:                                                      

       1A    -20.547369     2A    -11.324154     3A    -11.229972  
       4A    -11.228730     5A    -11.228161     6A    -11.223235  
       7A    -11.216291     8A     -1.393079     9A     -1.091787  
      10A     -1.028909    11A     -0.983434    12A     -0.891883  
      13A     -0.805744    14A     -0.734831    15A     -0.661592  
      16A     -0.643611    17A     -0.620387    18A     -0.612910  
      19A     -0.591306    20A     -0.569802    21A     -0.556098  
      22A     -0.533088    23A     -0.517448    24A     -0.501559  
      25A     -0.483599    26A     -0.468285    27A     -0.465760  
      28A     -0.396298  

    Virtual:                                                              

      29A      0.168353    30A      0.221160    31A      0.240807  
      32A      0.272323    33A      0.278168    34A      0.288285  
      35A      0.307458    36A      0.307875    37A      0.319615  
      38A      0.325642    39A      0.328752    40A      0.334562  
      41A      0.365653    42A      0.390296    43A      0.419645  
      44A      0.451292    45A      0.463828    46A      0.500636  
      47A      0.515875    48A      0.705284    49A      0.721200  
      50A      0.741390    51A      0.752453    52A      0.773937  
      53A      0.795847    54A      0.813247    55A      0.823210  
      56A      0.853508    57A      0.894372    58A      0.931449  
      59A      0.939113    60A      0.964924    61A      0.985104  
      62A      0.987601    63A      1.051844    64A      1.074402  
      65A      1.095307    66A      1.120001    67A      1.129491  
      68A      1.143967    69A      1.151195    70A      1.157272  
      71A      1.174501    72A      1.195551    73A      1.201689  
      74A      1.206760    75A      1.219491    76A      1.233818  
      77A      1.247831    78A      1.266177    79A      1.328030  
      80A      1.348797    81A      1.380205    82A      1.432586  
      83A      1.459766    84A      1.591054    85A      1.675924  
      86A      1.714000    87A      1.758282    88A      1.822965  
      89A      1.849582    90A      1.910691    91A      2.008998  
      92A      2.033857    93A      2.078577    94A      2.094987  
      95A      2.125878    96A      2.161480    97A      2.192787  
      98A      2.212423    99A      2.232605   100A      2.269405  
     101A      2.288411   102A      2.338865   103A      2.360258  
     104A      2.431744   105A      2.445121   106A      2.518802  
     107A      2.534450   108A      2.612857   109A      2.661845  
     110A      2.663389   111A      2.691994   112A      2.731771  
     113A      2.739742   114A      2.794514   115A      2.847843  
     116A      2.917130   117A      2.991052   118A      3.036646  
     119A      3.083865   120A      3.140930   121A      3.375838  
     122A      3.377913   123A      4.456387   124A      4.526776  
     125A      4.592161   126A      4.684510   127A      4.830574  
     128A      4.910184   129A      5.012205  

    Final Occupation by Irrep:
              A 
    DOCC [    28 ]

  Energy converged.

  @DF-RHF Final Energy:  -309.05912255279964

   => Energetics <=

    Nuclear Repulsion Energy =            302.4673930106514490
    One-Electron Energy =               -1017.9544896567920205
    Two-Electron Energy =                 406.4279740933421294
    DFT Exchange-Correlation Energy =       0.0000000000000000
    Empirical Dispersion Energy =           0.0000000000000000
    PCM Polarization Energy =               0.0000000000000000
    EFP Energy =                            0.0000000000000000
    Total Energy =                       -309.0591225527984420

    Alert: EFP and PCM quantities not currently incorporated into SCF psivars.

Properties will be evaluated at   0.000000,   0.000000,   0.000000 Bohr
  ==> Properties <==


Properties computed using the SCF density matrix

  Nuclear Dipole Moment: (a.u.)
     X:     7.6954      Y:     6.0307      Z:     0.6629

  Electronic Dipole Moment: (a.u.)
     X:    -7.1721      Y:    -4.9926      Z:    -0.3616

  Dipole Moment: (a.u.)
     X:     0.5232      Y:     1.0381      Z:     0.3013     Total:     1.2009

  Dipole Moment: (Debye)
     X:     1.3300      Y:     2.6386      Z:     0.7657     Total:     3.0525


  Saving occupied orbitals to File 180.

*** tstop() called on cx1-1-2-2.cx1.hpc.ic.ac.uk at Tue Jul  5 16:43:40 2016
Module time:
	user time   =      12.20 seconds =       0.20 minutes
	system time =       0.07 seconds =       0.00 minutes
	total time  =         13 seconds =       0.22 minutes
Total time:
	user time   =      12.20 seconds =       0.20 minutes
	system time =       0.07 seconds =       0.00 minutes
	total time  =         13 seconds =       0.22 minutes


Properties will be evaluated at   0.000000,   0.000000,   0.000000 Bohr

Properties computed using the  density matrix

  Nuclear Dipole Moment: (a.u.)
     X:     7.6954      Y:     6.0307      Z:     0.6629

  Electronic Dipole Moment: (a.u.)
     X:    -7.1721      Y:    -4.9926      Z:    -0.3616

  Dipole Moment: (a.u.)
     X:     0.5232      Y:     1.0381      Z:     0.3013     Total:     1.2009

  Dipole Moment: (Debye)
     X:     1.3300      Y:     2.6386      Z:     0.7657     Total:     3.0525

  Quadrupole Moment: (Debye Ang)
    XX:   -47.4601     YY:   -49.1029     ZZ:   -44.4989
    XY:    -6.6709     XZ:    -1.5217     YZ:    -1.1909

  Traceless Quadrupole Moment: (Debye Ang)
    XX:    -0.4394     YY:    -2.0823     ZZ:     2.5217
    XY:    -6.6709     XZ:    -1.5217     YZ:    -1.1909

  Mulliken Charges: (a.u.)
   Center  Symbol    Alpha    Beta     Spin     Total
       1     O     4.26214  4.26214  0.00000 -0.52429
       2     C     2.73742  2.73742  0.00000  0.52517
       3     C     3.20290  3.20290  0.00000 -0.40580
       4     C     3.28965  3.28965  0.00000 -0.57929
       5     C     3.16477  3.16477  0.00000 -0.32954
       6     H     0.41662  0.41662  0.00000  0.16676
       7     H     0.40036  0.40036  0.00000  0.19928
       8     C     3.15429  3.15429  0.00000 -0.30859
       9     H     0.41815  0.41815  0.00000  0.16371
      10     H     0.40376  0.40376  0.00000  0.19247
      11     C     3.24161  3.24161  0.00000 -0.48321
      12     H     0.41870  0.41870  0.00000  0.16259
      13     H     0.41573  0.41573  0.00000  0.16855
      14     H     0.42254  0.42254  0.00000  0.15493
      15     H     0.41944  0.41944  0.00000  0.16112
      16     H     0.41820  0.41820  0.00000  0.16359
      17     H     0.39701  0.39701  0.00000  0.20597
      18     H     0.40985  0.40985  0.00000  0.18030
      19     H     0.40686  0.40686  0.00000  0.18628

   Total alpha = 28.00000, Total beta = 28.00000, Total charge =  0.00000


*** PSI4 exiting successfully. Buy a developer a beer!
