    -----------------------------------------------------------------------
          Psi4: An Open-Source Ab Initio Electronic Structure Package
                              Psi4 (no tag) Driver

                          Git: Rev {detached?}  

    J. M. Turney, A. C. Simmonett, R. M. Parrish, E. G. Hohenstein,
    F. A. Evangelista, J. T. Fermann, B. J. Mintz, L. A. Burns, J. J. Wilke,
    M. L. Abrams, N. J. Russ, M. L. Leininger, C. L. Janssen, E. T. Seidl,
    W. D. Allen, H. F. Schaefer, R. A. King, E. F. Valeev, C. D. Sherrill,
    and T. D. Crawford, WIREs Comput. Mol. Sci. 2, 556-565 (2012)
    (doi: 10.1002/wcms.93)

                         Additional Contributions by
    A. E. DePrince, M. Saitow, U. Bozkaya, A. Yu. Sokolov
    -----------------------------------------------------------------------


    Psi4 started on: Tue Jul  5 17:21:48 2016

    Process ID:  21005
    PSI4DATADIR: /export131/home/mjharvey/miniconda3/share
    Memory level set to 256.000 MB

  ==> Input File <==

--------------------------------------------------------------------------
set {
	reference rhf
	basis 6-31G*
}


set_num_threads( 1 )
memory 2 gb

molecule MOL {
0 1

H	 -2.646374	 -0.642757	 1.268656
C	 -2.083525	 -0.384536	 0.393091
O	 -0.807605	 -0.127164	 0.768327
F	 -2.118945	 -1.383102	 -0.486752
F	 -2.621877	 0.670592	 -0.209486
C	 -0.234838	 1.055771	 0.337872
C	 -1.202892	 2.175367	 0.697782
Cl	 0.053820	 1.018272	 -1.409264
H	 0.706367	 1.254326	 0.820035
F	 -2.293972	 2.092256	 -0.033502
F	 -0.626504	 3.333021	 0.442728
F	 -1.540317	 2.149646	 1.964059

	symmetry c1
}
set optking {
	frozen_dihedral = ("
		10 7 6 9,
		9 6 3 2
	")
}

ee = energy('scf')
oeprop('DIPOLE', 'QUADRUPOLE', 'MULLIKEN_CHARGES')
f=open( 'psi4out.xyz', 'w' )
f.write( "12  " )
f.write( str(ee) + "\n" )
f.write( MOL.save_string_xyz() )
f.close()
--------------------------------------------------------------------------

  Memory set to   2.000 GiB by Python script.

*** tstart() called on cx1-3-4-4.cx1.hpc.ic.ac.uk
*** at Tue Jul  5 17:21:48 2016


         ---------------------------------------------------------
                                   SCF
            by Justin Turney, Rob Parrish, and Andy Simmonett
                              RHF Reference
                        1 Threads,   2000 MiB Core
         ---------------------------------------------------------

  ==> Geometry <==

    Molecular point group: c1
    Full point group: C1

    Geometry (in Angstrom), charge = 0, multiplicity = 1:

       Center              X                  Y                   Z               Mass       
    ------------   -----------------  -----------------  -----------------  -----------------
           H         -1.395844041571    -1.722948039886     1.191904030974     1.007825032070
           C         -0.832995041571    -1.464727039886     0.316339030974    12.000000000000
           O          0.442924958429    -1.207355039886     0.691575030974    15.994914619560
           F         -0.868415041571    -2.463293039886    -0.563503969026    18.998403224000
           F         -1.371347041571    -0.409599039886    -0.286237969026    18.998403224000
           C          1.015691958429    -0.024420039886     0.261120030974    12.000000000000
           C          0.047637958429     1.095175960114     0.621030030974    12.000000000000
          CL          1.304349958429    -0.061919039886    -1.486015969026    34.968852682000
           H          1.956896958429     0.174134960114     0.743283030974     1.007825032070
           F         -1.043442041571     1.012064960114    -0.110253969026    18.998403224000
           F          0.624025958429     2.252829960114     0.365976030974    18.998403224000
           F         -0.289787041571     1.069454960114     1.887307030974    18.998403224000

  Running in c1 symmetry.

  Rotational constants: A =      0.05533  B =      0.03800  C =      0.02916 [cm^-1]
  Rotational constants: A =   1658.70038  B =   1139.21611  C =    874.34195 [MHz]
  Nuclear repulsion =  789.342094731119914

  Charge       = 0
  Multiplicity = 1
  Electrons    = 90
  Nalpha       = 45
  Nbeta        = 45

  ==> Algorithm <==

  SCF Algorithm Type is DF.
  DIIS enabled.
  MOM disabled.
  Fractional occupation disabled.
  Guess Type is CORE.
  Energy threshold   = 1.00e-06
  Density threshold  = 1.00e-06
  Integral threshold = 0.00e+00

  ==> Primary Basis <==

  Basis Set: 6-31G*
    Number of shells: 66
    Number of basis function: 158
    Number of Cartesian functions: 158
    Spherical Harmonics?: false
    Max angular momentum: 2

  ==> Pre-Iterations <==

   -------------------------------------------------------
    Irrep   Nso     Nmo     Nalpha   Nbeta   Ndocc  Nsocc
   -------------------------------------------------------
     A        158     158       0       0       0       0
   -------------------------------------------------------
    Total     158     158      45      45      45       0
   -------------------------------------------------------

 OEINTS: Overlap, kinetic, potential, dipole, and quadrupole integrals
         stored in file 35.

  ==> Integral Setup <==

  ==> DFJK: Density-Fitted J/K Matrices <==

    J tasked:                  Yes
    K tasked:                  Yes
    wK tasked:                  No
    OpenMP threads:              1
    Integrals threads:           1
    Memory (MB):              1430
    Algorithm:                Core
    Integral Cache:           NONE
    Schwarz Cutoff:          1E-12
    Fitting Condition:       1E-12

   => Auxiliary Basis Set <=

  Basis Set: 
    Number of shells: 270
    Number of basis function: 909
    Number of Cartesian functions: 909
    Spherical Harmonics?: false
    Max angular momentum: 3

  Minimum eigenvalue in the overlap matrix is 1.6570802173E-03.
  Using Symmetric Orthogonalization.
  SCF Guess: Core (One-Electron) Hamiltonian.

  ==> Iterations <==

                           Total Energy        Delta E     RMS |[F,P]|

   @DF-RHF iter   1: -1047.30501308481439   -1.04731e+03   7.09461e-02 
   @DF-RHF iter   2:  -925.37092559998223    1.21934e+02   7.79403e-02 DIIS
   @DF-RHF iter   3: -1104.08203485448371   -1.78711e+02   3.10715e-02 DIIS
   @DF-RHF iter   4:  -939.80839193118118    1.64274e+02   8.34487e-02 DIIS
   @DF-RHF iter   5: -1130.57566413711788   -1.90767e+02   3.44629e-02 DIIS
   @DF-RHF iter   6: -1142.15566755656823   -1.15800e+01   1.78298e-02 DIIS
   @DF-RHF iter   7: -1144.86910846339674   -2.71344e+00   9.60287e-03 DIIS
   @DF-RHF iter   8: -1145.86692807619670   -9.97820e-01   3.84822e-03 DIIS
   @DF-RHF iter   9: -1146.03235836033969   -1.65430e-01   1.32228e-03 DIIS
   @DF-RHF iter  10: -1146.05580143024144   -2.34431e-02   3.83273e-04 DIIS
   @DF-RHF iter  11: -1146.05758033019174   -1.77890e-03   2.45397e-04 DIIS
   @DF-RHF iter  12: -1146.05828894230854   -7.08612e-04   4.77302e-05 DIIS
   @DF-RHF iter  13: -1146.05832549624733   -3.65539e-05   2.11934e-05 DIIS
   @DF-RHF iter  14: -1146.05833145940073   -5.96315e-06   5.41232e-06 DIIS
   @DF-RHF iter  15: -1146.05833193127228   -4.71872e-07   1.80743e-06 DIIS
   @DF-RHF iter  16: -1146.05833198299160   -5.17193e-08   4.72066e-07 DIIS

  ==> Post-Iterations <==

    Orbital Energies (a.u.)
    -----------------------

    Doubly Occupied:                                                      

       1A   -104.844079     2A    -26.370149     3A    -26.353426  
       4A    -26.322190     5A    -26.307720     6A    -26.307266  
       7A    -20.644094     8A    -11.522914     9A    -11.471833  
      10A    -11.404446    11A    -10.579042    12A     -8.048391  
      13A     -8.044836    14A     -8.044732    15A     -1.792635  
      16A     -1.726741    17A     -1.663773    18A     -1.658111  
      19A     -1.591577    20A     -1.485290    21A     -1.178669  
      22A     -1.047289    23A     -1.028619    24A     -0.907816  
      25A     -0.896266    26A     -0.867214    27A     -0.856805  
      28A     -0.816792    29A     -0.785504    30A     -0.770994  
      31A     -0.746871    32A     -0.719274    33A     -0.704123  
      34A     -0.696500    35A     -0.687232    36A     -0.671943  
      37A     -0.663980    38A     -0.640991    39A     -0.636756  
      40A     -0.589210    41A     -0.564883    42A     -0.519944  
      43A     -0.479116    44A     -0.474925    45A     -0.461336  

    Virtual:                                                              

      46A      0.171492    47A      0.237458    48A      0.260667  
      49A      0.281892    50A      0.327583    51A      0.393887  
      52A      0.404227    53A      0.426621    54A      0.438075  
      55A      0.479247    56A      0.498911    57A      0.552036  
      58A      0.619530    59A      0.624991    60A      0.635842  
      61A      0.681290    62A      0.702033    63A      0.731021  
      64A      0.755384    65A      0.757380    66A      0.769796  
      67A      0.774782    68A      0.823534    69A      0.943598  
      70A      0.992994    71A      1.050100    72A      1.070839  
      73A      1.104405    74A      1.123479    75A      1.147538  
      76A      1.167187    77A      1.193140    78A      1.245423  
      79A      1.260999    80A      1.293253    81A      1.323203  
      82A      1.348262    83A      1.372242    84A      1.399301  
      85A      1.451647    86A      1.474729    87A      1.504843  
      88A      1.528647    89A      1.563495    90A      1.583236  
      91A      1.602468    92A      1.615811    93A      1.635213  
      94A      1.646909    95A      1.661200    96A      1.669951  
      97A      1.683856    98A      1.715515    99A      1.763322  
     100A      1.820009   101A      1.831198   102A      1.906411  
     103A      1.950001   104A      1.959522   105A      2.019246  
     106A      2.039086   107A      2.044507   108A      2.060973  
     109A      2.090531   110A      2.110740   111A      2.119957  
     112A      2.134305   113A      2.186067   114A      2.243444  
     115A      2.254243   116A      2.275384   117A      2.313645  
     118A      2.337232   119A      2.356596   120A      2.367682  
     121A      2.380761   122A      2.406284   123A      2.423327  
     124A      2.468030   125A      2.490568   126A      2.511980  
     127A      2.542276   128A      2.586231   129A      2.611023  
     130A      2.702293   131A      2.755174   132A      2.777116  
     133A      2.804302   134A      2.861768   135A      2.908430  
     136A      3.019574   137A      3.066175   138A      3.127882  
     139A      3.174820   140A      3.205229   141A      3.277984  
     142A      3.303392   143A      3.397238   144A      3.441271  
     145A      3.464458   146A      3.485044   147A      3.569012  
     148A      4.053178   149A      4.366301   150A      4.556103  
     151A      4.696604   152A      4.738768   153A      4.770356  
     154A      4.941231   155A      5.230114   156A      5.427015  
     157A      5.990490   158A      6.306396  

    Final Occupation by Irrep:
              A 
    DOCC [    45 ]

  Energy converged.

  @DF-RHF Final Energy: -1146.05833198299160

   => Energetics <=

    Nuclear Repulsion Energy =            789.3420947311199143
    One-Electron Energy =               -3161.6083876904367571
    Two-Electron Energy =                1226.2079609763227381
    DFT Exchange-Correlation Energy =       0.0000000000000000
    Empirical Dispersion Energy =           0.0000000000000000
    PCM Polarization Energy =               0.0000000000000000
    EFP Energy =                            0.0000000000000000
    Total Energy =                      -1146.0583319829943321

    Alert: EFP and PCM quantities not currently incorporated into SCF psivars.

Properties will be evaluated at   0.000000,   0.000000,   0.000000 Bohr
  ==> Properties <==


Properties computed using the SCF density matrix

  Nuclear Dipole Moment: (a.u.)
     X:     2.1160      Y:    -2.7798      Z:     1.9578

  Electronic Dipole Moment: (a.u.)
     X:    -1.8799      Y:     2.7240      Z:    -1.1614

  Dipole Moment: (a.u.)
     X:     0.2360      Y:    -0.0558      Z:     0.7964     Total:     0.8326

  Dipole Moment: (Debye)
     X:     0.5999      Y:    -0.1418      Z:     2.0244     Total:     2.1162


  Saving occupied orbitals to File 180.

*** tstop() called on cx1-3-4-4.cx1.hpc.ic.ac.uk at Tue Jul  5 17:22:08 2016
Module time:
	user time   =      19.03 seconds =       0.32 minutes
	system time =       0.24 seconds =       0.00 minutes
	total time  =         20 seconds =       0.33 minutes
Total time:
	user time   =      19.03 seconds =       0.32 minutes
	system time =       0.24 seconds =       0.00 minutes
	total time  =         20 seconds =       0.33 minutes


Properties will be evaluated at   0.000000,   0.000000,   0.000000 Bohr

Properties computed using the  density matrix

  Nuclear Dipole Moment: (a.u.)
     X:     2.1160      Y:    -2.7798      Z:     1.9578

  Electronic Dipole Moment: (a.u.)
     X:    -1.8799      Y:     2.7240      Z:    -1.1614

  Dipole Moment: (a.u.)
     X:     0.2360      Y:    -0.0558      Z:     0.7964     Total:     0.8326

  Dipole Moment: (Debye)
     X:     0.5999      Y:    -0.1418      Z:     2.0244     Total:     2.1162

  Quadrupole Moment: (Debye Ang)
    XX:   -56.7357     YY:   -64.5945     ZZ:   -59.9705
    XY:     1.9281     XZ:    -0.3401     YZ:    -2.4095

  Traceless Quadrupole Moment: (Debye Ang)
    XX:     3.6979     YY:    -4.1609     ZZ:     0.4630
    XY:     1.9281     XZ:    -0.3401     YZ:    -2.4095

  Mulliken Charges: (a.u.)
   Center  Symbol    Alpha    Beta     Spin     Total
       1     H     0.40896  0.40896  0.00000  0.18208
       2     C     2.57230  2.57230  0.00000  0.85540
       3     O     4.30680  4.30680  0.00000 -0.61360
       4     F     4.68341  4.68341  0.00000 -0.36682
       5     F     4.66646  4.66646  0.00000 -0.33292
       6     C     3.03519  3.03519  0.00000 -0.07039
       7     C     2.45530  2.45530  0.00000  1.08940
       8    CL     8.50014  8.50014  0.00000 -0.00029
       9     H     0.36144  0.36144  0.00000  0.27713
      10     F     4.65840  4.65840  0.00000 -0.31681
      11     F     4.67772  4.67772  0.00000 -0.35545
      12     F     4.67387  4.67387  0.00000 -0.34774

   Total alpha = 45.00000, Total beta = 45.00000, Total charge =  0.00000


*** PSI4 exiting successfully. Buy a developer a beer!
