    -----------------------------------------------------------------------
          Psi4: An Open-Source Ab Initio Electronic Structure Package
                              Psi4 (no tag) Driver

                          Git: Rev {detached?}  

    J. M. Turney, A. C. Simmonett, R. M. Parrish, E. G. Hohenstein,
    F. A. Evangelista, J. T. Fermann, B. J. Mintz, L. A. Burns, J. J. Wilke,
    M. L. Abrams, N. J. Russ, M. L. Leininger, C. L. Janssen, E. T. Seidl,
    W. D. Allen, H. F. Schaefer, R. A. King, E. F. Valeev, C. D. Sherrill,
    and T. D. Crawford, WIREs Comput. Mol. Sci. 2, 556-565 (2012)
    (doi: 10.1002/wcms.93)

                         Additional Contributions by
    A. E. DePrince, M. Saitow, U. Bozkaya, A. Yu. Sokolov
    -----------------------------------------------------------------------


    Psi4 started on: Tue Jul  5 16:30:43 2016

    Process ID:  21285
    PSI4DATADIR: /export131/home/mjharvey/miniconda3/share
    Memory level set to 256.000 MB

  ==> Input File <==

--------------------------------------------------------------------------
set {
	reference rhf
	basis 6-31G*
}


set_num_threads( 1 )
memory 2 gb

molecule MOL {
0 1

H	 -2.273092	 1.173159	 0.000295
O	 -1.438904	 1.618192	 0.000114
C	 -0.409536	 0.736003	 0.000030
C	 0.062325	 0.331312	 -1.238829
C	 0.156746	 0.251001	 1.176907
H	 -0.402975	 0.729841	 -2.121247
C	 1.109882	 -0.566407	 -1.317788
C	 1.208636	 -0.650421	 1.067568
C	 -0.359617	 0.693664	 2.527620
H	 1.471342	 -0.876404	 -2.282019
C	 1.690295	 -1.063487	 -0.161930
H	 1.656974	 -1.034436	 1.967496
H	 -1.406753	 0.433394	 2.668009
H	 0.196780	 0.217201	 3.324728
H	 -0.263181	 1.768412	 2.667674
H	 2.505389	 -1.761999	 -0.215817

	symmetry c1
}
ee = energy('scf')
oeprop('DIPOLE', 'QUADRUPOLE', 'MULLIKEN_CHARGES')
f=open( 'psi4out.xyz', 'w' )
f.write( "16  " )
f.write( str(ee) + "\n" )
f.write( MOL.save_string_xyz() )
f.close()
--------------------------------------------------------------------------

  Memory set to   2.000 GiB by Python script.

*** tstart() called on cx1-3-15-2.cx1.hpc.ic.ac.uk
*** at Tue Jul  5 16:30:43 2016


         ---------------------------------------------------------
                                   SCF
            by Justin Turney, Rob Parrish, and Andy Simmonett
                              RHF Reference
                        1 Threads,   2000 MiB Core
         ---------------------------------------------------------

  ==> Geometry <==

    Molecular point group: c1
    Full point group: C1

    Geometry (in Angstrom), charge = 0, multiplicity = 1:

       Center              X                  Y                   Z               Mass       
    ------------   -----------------  -----------------  -----------------  -----------------
           H         -2.458046517343     0.957375112455    -0.283821287556     1.007825032070
           O         -1.623858517343     1.402408112455    -0.284002287556    15.994914619560
           C         -0.594490517343     0.520219112455    -0.284086287556    12.000000000000
           C         -0.122629517343     0.115528112455    -1.522945287556    12.000000000000
           C         -0.028208517343     0.035217112455     0.892790712444    12.000000000000
           H         -0.587929517343     0.514057112455    -2.405363287556     1.007825032070
           C          0.924927482657    -0.782190887545    -1.601904287556    12.000000000000
           C          1.023681482657    -0.866204887545     0.783451712444    12.000000000000
           C         -0.544571517343     0.477880112455     2.243503712444    12.000000000000
           H          1.286387482657    -1.092187887545    -2.566135287556     1.007825032070
           C          1.505340482657    -1.279270887545    -0.446046287556    12.000000000000
           H          1.472019482657    -1.250219887545     1.683379712444     1.007825032070
           H         -1.591707517343     0.217610112455     2.383892712444     1.007825032070
           H          0.011825482657     0.001417112455     3.040611712444     1.007825032070
           H         -0.448135517343     1.552628112455     2.383557712444     1.007825032070
           H          2.320434482657    -1.977782887545    -0.499933287556     1.007825032070

  Running in c1 symmetry.

  Rotational constants: A =      0.10754  B =      0.07484  C =      0.04467 [cm^-1]
  Rotational constants: A =   3223.92829  B =   2243.74207  C =   1339.14671 [MHz]
  Nuclear repulsion =  349.679645354937747

  Charge       = 0
  Multiplicity = 1
  Electrons    = 58
  Nalpha       = 29
  Nbeta        = 29

  ==> Algorithm <==

  SCF Algorithm Type is DF.
  DIIS enabled.
  MOM disabled.
  Fractional occupation disabled.
  Guess Type is CORE.
  Energy threshold   = 1.00e-06
  Density threshold  = 1.00e-06
  Integral threshold = 0.00e+00

  ==> Primary Basis <==

  Basis Set: 6-31G*
    Number of shells: 64
    Number of basis function: 136
    Number of Cartesian functions: 136
    Spherical Harmonics?: false
    Max angular momentum: 2

  ==> Pre-Iterations <==

   -------------------------------------------------------
    Irrep   Nso     Nmo     Nalpha   Nbeta   Ndocc  Nsocc
   -------------------------------------------------------
     A        136     136       0       0       0       0
   -------------------------------------------------------
    Total     136     136      29      29      29       0
   -------------------------------------------------------

 OEINTS: Overlap, kinetic, potential, dipole, and quadrupole integrals
         stored in file 35.

  ==> Integral Setup <==

  ==> DFJK: Density-Fitted J/K Matrices <==

    J tasked:                  Yes
    K tasked:                  Yes
    wK tasked:                  No
    OpenMP threads:              1
    Integrals threads:           1
    Memory (MB):              1430
    Algorithm:                Core
    Integral Cache:           NONE
    Schwarz Cutoff:          1E-12
    Fitting Condition:       1E-12

   => Auxiliary Basis Set <=

  Basis Set: 
    Number of shells: 264
    Number of basis function: 848
    Number of Cartesian functions: 848
    Spherical Harmonics?: false
    Max angular momentum: 3

  Minimum eigenvalue in the overlap matrix is 3.9246034525E-04.
  Using Symmetric Orthogonalization.
  SCF Guess: Core (One-Electron) Hamiltonian.

  ==> Iterations <==

                           Total Energy        Delta E     RMS |[F,P]|

   @DF-RHF iter   1:  -269.51929464209195   -2.69519e+02   6.77708e-02 
   @DF-RHF iter   2:  -243.47547682956701    2.60438e+01   5.45778e-02 DIIS
   @DF-RHF iter   3:  -288.82018263012492   -4.53447e+01   5.34279e-02 DIIS
   @DF-RHF iter   4:  -334.94477486712628   -4.61246e+01   3.01621e-02 DIIS
   @DF-RHF iter   5:  -343.60491446078322   -8.66014e+00   9.17956e-03 DIIS
   @DF-RHF iter   6:  -344.50889123148272   -9.03977e-01   2.84733e-03 DIIS
   @DF-RHF iter   7:  -344.58208029203047   -7.31891e-02   7.29200e-04 DIIS
   @DF-RHF iter   8:  -344.58781240133067   -5.73211e-03   3.36342e-04 DIIS
   @DF-RHF iter   9:  -344.58931066317155   -1.49826e-03   1.14691e-04 DIIS
   @DF-RHF iter  10:  -344.58958519181658   -2.74529e-04   3.88151e-05 DIIS
   @DF-RHF iter  11:  -344.58964090144207   -5.57096e-05   2.09828e-05 DIIS
   @DF-RHF iter  12:  -344.58966029938711   -1.93979e-05   9.71090e-06 DIIS
   @DF-RHF iter  13:  -344.58966545697240   -5.15759e-06   2.61045e-06 DIIS
   @DF-RHF iter  14:  -344.58966574829446   -2.91322e-07   8.80230e-07 DIIS

  ==> Post-Iterations <==

    Orbital Energies (a.u.)
    -----------------------

    Doubly Occupied:                                                      

       1A    -20.575046     2A    -11.282574     3A    -11.234871  
       4A    -11.228151     5A    -11.227900     6A    -11.224557  
       7A    -11.221907     8A    -11.220092     9A     -1.397026  
      10A     -1.147535    11A     -1.043237    12A     -1.002318  
      13A     -0.931405    14A     -0.828497    15A     -0.807469  
      16A     -0.728196    17A     -0.666599    18A     -0.653976  
      19A     -0.622405    20A     -0.590535    21A     -0.570394  
      22A     -0.565414    23A     -0.542530    24A     -0.516552  
      25A     -0.500800    26A     -0.481208    27A     -0.458559  
      28A     -0.328304    29A     -0.316485  

    Virtual:                                                              

      30A      0.150054    31A      0.153248    32A      0.222548  
      33A      0.247078    34A      0.274879    35A      0.296236  
      36A      0.323910    37A      0.324879    38A      0.332128  
      39A      0.350363    40A      0.399943    41A      0.415287  
      42A      0.458948    43A      0.483313    44A      0.513994  
      45A      0.563124    46A      0.566409    47A      0.709638  
      48A      0.724504    49A      0.738586    50A      0.743529  
      51A      0.751362    52A      0.775270    53A      0.823707  
      54A      0.833148    55A      0.840036    56A      0.847252  
      57A      0.852004    58A      0.883279    59A      0.891387  
      60A      0.921329    61A      0.941981    62A      0.960581  
      63A      1.021647    64A      1.043211    65A      1.061135  
      66A      1.111075    67A      1.116648    68A      1.126980  
      69A      1.143644    70A      1.167210    71A      1.187952  
      72A      1.195893    73A      1.210473    74A      1.223294  
      75A      1.242938    76A      1.281961    77A      1.300073  
      78A      1.325909    79A      1.374244    80A      1.408704  
      81A      1.427320    82A      1.447375    83A      1.508562  
      84A      1.510370    85A      1.616616    86A      1.637937  
      87A      1.665588    88A      1.723338    89A      1.738932  
      90A      1.765684    91A      1.783966    92A      1.797477  
      93A      1.950968    94A      2.033791    95A      2.074832  
      96A      2.108868    97A      2.141061    98A      2.160619  
      99A      2.203490   100A      2.222292   101A      2.252973  
     102A      2.290387   103A      2.313474   104A      2.336090  
     105A      2.432687   106A      2.444681   107A      2.486998  
     108A      2.510763   109A      2.571315   110A      2.613245  
     111A      2.644828   112A      2.657698   113A      2.664656  
     114A      2.676890   115A      2.697219   116A      2.779197  
     117A      2.904572   118A      2.937436   119A      2.961969  
     120A      3.033434   121A      3.087531   122A      3.109246  
     123A      3.140797   124A      3.171622   125A      3.249158  
     126A      3.365623   127A      3.550245   128A      3.840043  
     129A      4.348287   130A      4.534645   131A      4.552578  
     132A      4.613087   133A      4.721895   134A      4.829896  
     135A      4.856773   136A      5.193900  

    Final Occupation by Irrep:
              A 
    DOCC [    29 ]

  Energy converged.

  @DF-RHF Final Energy:  -344.58966574829446

   => Energetics <=

    Nuclear Repulsion Energy =            349.6796453549377475
    One-Electron Energy =               -1160.7096025299192661
    Two-Electron Energy =                 466.4402914266881339
    DFT Exchange-Correlation Energy =       0.0000000000000000
    Empirical Dispersion Energy =           0.0000000000000000
    PCM Polarization Energy =               0.0000000000000000
    EFP Energy =                            0.0000000000000000
    Total Energy =                       -344.5896657482933847

    Alert: EFP and PCM quantities not currently incorporated into SCF psivars.

Properties will be evaluated at   0.000000,   0.000000,   0.000000 Bohr
  ==> Properties <==


Properties computed using the SCF density matrix

  Nuclear Dipole Moment: (a.u.)
     X:    -0.0033      Y:    -1.0030      Z:     3.5012

  Electronic Dipole Moment: (a.u.)
     X:    -0.2985      Y:     0.4494      Z:    -3.4136

  Dipole Moment: (a.u.)
     X:    -0.3018      Y:    -0.5536      Z:     0.0876     Total:     0.6366

  Dipole Moment: (Debye)
     X:    -0.7670      Y:    -1.4071      Z:     0.2228     Total:     1.6180


  Saving occupied orbitals to File 180.

*** tstop() called on cx1-3-15-2.cx1.hpc.ic.ac.uk at Tue Jul  5 16:30:56 2016
Module time:
	user time   =      12.26 seconds =       0.20 minutes
	system time =       0.06 seconds =       0.00 minutes
	total time  =         13 seconds =       0.22 minutes
Total time:
	user time   =      12.26 seconds =       0.20 minutes
	system time =       0.06 seconds =       0.00 minutes
	total time  =         13 seconds =       0.22 minutes


Properties will be evaluated at   0.000000,   0.000000,   0.000000 Bohr

Properties computed using the  density matrix

  Nuclear Dipole Moment: (a.u.)
     X:    -0.0033      Y:    -1.0030      Z:     3.5012

  Electronic Dipole Moment: (a.u.)
     X:    -0.2985      Y:     0.4494      Z:    -3.4136

  Dipole Moment: (a.u.)
     X:    -0.3018      Y:    -0.5536      Z:     0.0876     Total:     0.6366

  Dipole Moment: (Debye)
     X:    -0.7670      Y:    -1.4071      Z:     0.2228     Total:     1.6180

  Quadrupole Moment: (Debye Ang)
    XX:   -42.1330     YY:   -51.6736     ZZ:   -43.0874
    XY:    -1.4164     XZ:     0.3024     YZ:     0.5656

  Traceless Quadrupole Moment: (Debye Ang)
    XX:     3.4983     YY:    -6.0422     ZZ:     2.5439
    XY:    -1.4164     XZ:     0.3024     YZ:     0.5656

  Mulliken Charges: (a.u.)
   Center  Symbol    Alpha    Beta     Spin     Total
       1     H     0.27073  0.27073  0.00000  0.45854
       2     O     4.38709  4.38709  0.00000 -0.77417
       3     C     2.83269  2.83269  0.00000  0.33461
       4     C     3.11418  3.11418  0.00000 -0.22836
       5     C     3.00170  3.00170  0.00000 -0.00340
       6     H     0.39520  0.39520  0.00000  0.20960
       7     C     3.10176  3.10176  0.00000 -0.20352
       8     C     3.11290  3.11290  0.00000 -0.22579
       9     C     3.24403  3.24403  0.00000 -0.48806
      10     H     0.40022  0.40022  0.00000  0.19955
      11     C     3.10064  3.10064  0.00000 -0.20128
      12     H     0.40122  0.40122  0.00000  0.19756
      13     H     0.41762  0.41762  0.00000  0.16477
      14     H     0.41524  0.41524  0.00000  0.16951
      15     H     0.40513  0.40513  0.00000  0.18973
      16     H     0.39965  0.39965  0.00000  0.20071

   Total alpha = 29.00000, Total beta = 29.00000, Total charge = -0.00000


*** PSI4 exiting successfully. Buy a developer a beer!
