    -----------------------------------------------------------------------
          Psi4: An Open-Source Ab Initio Electronic Structure Package
                              Psi4 (no tag) Driver

                          Git: Rev {detached?}  

    J. M. Turney, A. C. Simmonett, R. M. Parrish, E. G. Hohenstein,
    F. A. Evangelista, J. T. Fermann, B. J. Mintz, L. A. Burns, J. J. Wilke,
    M. L. Abrams, N. J. Russ, M. L. Leininger, C. L. Janssen, E. T. Seidl,
    W. D. Allen, H. F. Schaefer, R. A. King, E. F. Valeev, C. D. Sherrill,
    and T. D. Crawford, WIREs Comput. Mol. Sci. 2, 556-565 (2012)
    (doi: 10.1002/wcms.93)

                         Additional Contributions by
    A. E. DePrince, M. Saitow, U. Bozkaya, A. Yu. Sokolov
    -----------------------------------------------------------------------


    Psi4 started on: Tue Jul  5 16:39:14 2016

    Process ID:  17588
    PSI4DATADIR: /export131/home/mjharvey/miniconda3/share
    Memory level set to 256.000 MB

  ==> Input File <==

--------------------------------------------------------------------------
set {
	reference rhf
	basis 6-31G*
}


set_num_threads( 1 )
memory 2 gb

molecule MOL {
0 1

H	 -3.531075	 0.153676	 0.694648
O	 -3.109513	 -0.239161	 -0.057402
C	 -1.776244	 -0.071954	 -0.007364
C	 -1.152044	 0.600258	 1.039300
C	 -1.026943	 -0.600189	 -1.051194
H	 -1.740172	 1.006652	 1.844446
C	 0.219759	 0.741584	 1.037870
H	 -1.531461	 -1.114396	 -1.847011
C	 0.344161	 -0.450697	 -1.038431
H	 0.714528	 1.257851	 1.838976
C	 0.984182	 0.218375	 0.000000
H	 0.925288	 -0.859860	 -1.847096
C	 2.452467	 0.370529	 0.000000
O	 3.228994	 -0.533774	 0.000000
H	 2.809473	 1.405765	 0.000000

	symmetry c1
}
set optking {
	frozen_dihedral = ("
		5 3 2 1
	")
}

ee = energy('scf')
oeprop('DIPOLE', 'QUADRUPOLE', 'MULLIKEN_CHARGES')
f=open( 'psi4out.xyz', 'w' )
f.write( "15  " )
f.write( str(ee) + "\n" )
f.write( MOL.save_string_xyz() )
f.close()
--------------------------------------------------------------------------

  Memory set to   2.000 GiB by Python script.

*** tstart() called on cx1-1-3-3.cx1.hpc.ic.ac.uk
*** at Tue Jul  5 16:39:14 2016


         ---------------------------------------------------------
                                   SCF
            by Justin Turney, Rob Parrish, and Andy Simmonett
                              RHF Reference
                        1 Threads,   2000 MiB Core
         ---------------------------------------------------------

  ==> Geometry <==

    Molecular point group: c1
    Full point group: C1

    Geometry (in Angstrom), charge = 0, multiplicity = 1:

       Center              X                  Y                   Z               Mass       
    ------------   -----------------  -----------------  -----------------  -----------------
           H         -3.531757661530     0.160264140619     0.698471872268     1.007825032070
           O         -3.110195661530    -0.232572859381    -0.053578127732    15.994914619560
           C         -1.776926661530    -0.065365859381    -0.003540127732    12.000000000000
           C         -1.152726661530     0.606846140619     1.043123872268    12.000000000000
           C         -1.027625661530    -0.593600859381    -1.047370127732    12.000000000000
           H         -1.740854661530     1.013240140619     1.848269872268     1.007825032070
           C          0.219076338470     0.748172140619     1.041693872268    12.000000000000
           H         -1.532143661530    -1.107807859381    -1.843187127732     1.007825032070
           C          0.343478338470    -0.444108859381    -1.034607127732    12.000000000000
           H          0.713845338470     1.264439140619     1.842799872268     1.007825032070
           C          0.983499338470     0.224963140619     0.003823872268    12.000000000000
           H          0.924605338470    -0.853271859381    -1.843272127732     1.007825032070
           C          2.451784338470     0.377117140619     0.003823872268    12.000000000000
           O          3.228311338470    -0.527185859381     0.003823872268    15.994914619560
           H          2.808790338470     1.412353140619     0.003823872268     1.007825032070

  Running in c1 symmetry.

  Rotational constants: A =      0.17137  B =      0.03316  C =      0.02848 [cm^-1]
  Rotational constants: A =   5137.57554  B =    994.07100  C =    853.68308 [MHz]
  Nuclear repulsion =  400.897710233048599

  Charge       = 0
  Multiplicity = 1
  Electrons    = 64
  Nalpha       = 32
  Nbeta        = 32

  ==> Algorithm <==

  SCF Algorithm Type is DF.
  DIIS enabled.
  MOM disabled.
  Fractional occupation disabled.
  Guess Type is CORE.
  Energy threshold   = 1.00e-06
  Density threshold  = 1.00e-06
  Integral threshold = 0.00e+00

  ==> Primary Basis <==

  Basis Set: 6-31G*
    Number of shells: 66
    Number of basis function: 147
    Number of Cartesian functions: 147
    Spherical Harmonics?: false
    Max angular momentum: 2

  ==> Pre-Iterations <==

   -------------------------------------------------------
    Irrep   Nso     Nmo     Nalpha   Nbeta   Ndocc  Nsocc
   -------------------------------------------------------
     A        147     147       0       0       0       0
   -------------------------------------------------------
    Total     147     147      32      32      32       0
   -------------------------------------------------------

 OEINTS: Overlap, kinetic, potential, dipole, and quadrupole integrals
         stored in file 35.

  ==> Integral Setup <==

  ==> DFJK: Density-Fitted J/K Matrices <==

    J tasked:                  Yes
    K tasked:                  Yes
    wK tasked:                  No
    OpenMP threads:              1
    Integrals threads:           1
    Memory (MB):              1430
    Algorithm:                Core
    Integral Cache:           NONE
    Schwarz Cutoff:          1E-12
    Fitting Condition:       1E-12

   => Auxiliary Basis Set <=

  Basis Set: 
    Number of shells: 270
    Number of basis function: 879
    Number of Cartesian functions: 879
    Spherical Harmonics?: false
    Max angular momentum: 3

  Minimum eigenvalue in the overlap matrix is 4.0924663849E-04.
  Using Symmetric Orthogonalization.
  SCF Guess: Core (One-Electron) Hamiltonian.

  ==> Iterations <==

                           Total Energy        Delta E     RMS |[F,P]|

   @DF-RHF iter   1:  -343.02429089675383   -3.43024e+02   6.06730e-02 
   @DF-RHF iter   2:  -201.21465829522407    1.41810e+02   7.47681e-02 DIIS
   @DF-RHF iter   3:  -323.14407254955955   -1.21929e+02   4.91412e-02 DIIS
   @DF-RHF iter   4:  -319.27142751579134    3.87265e+00   5.57645e-02 DIIS
   @DF-RHF iter   5:  -417.28219628805999   -9.80108e+01   1.00547e-02 DIIS
   @DF-RHF iter   6:  -417.83214955962188   -5.49953e-01   7.23623e-03 DIIS
   @DF-RHF iter   7:  -418.26424051250439   -4.32091e-01   8.65475e-04 DIIS
   @DF-RHF iter   8:  -418.27454951644512   -1.03090e-02   3.21993e-04 DIIS
   @DF-RHF iter   9:  -418.27639788193102   -1.84837e-03   1.43617e-04 DIIS
   @DF-RHF iter  10:  -418.27702669798413   -6.28816e-04   7.55270e-05 DIIS
   @DF-RHF iter  11:  -418.27728022034393   -2.53522e-04   2.95018e-05 DIIS
   @DF-RHF iter  12:  -418.27731953647111   -3.93161e-05   1.37072e-05 DIIS
   @DF-RHF iter  13:  -418.27732948544354   -9.94897e-06   4.61739e-06 DIIS
   @DF-RHF iter  14:  -418.27733037506374   -8.89620e-07   1.81714e-06 DIIS
   @DF-RHF iter  15:  -418.27733046700547   -9.19417e-08   5.03339e-07 DIIS

  ==> Post-Iterations <==

    Orbital Energies (a.u.)
    -----------------------

    Doubly Occupied:                                                      

       1A    -20.605744     2A    -20.566749     3A    -11.331560  
       4A    -11.316840     5A    -11.258740     6A    -11.253751  
       7A    -11.244851     8A    -11.241765     9A    -11.236684  
      10A     -1.427289    11A     -1.403879    12A     -1.169045  
      13A     -1.040776    14A     -1.036731    15A     -0.891981  
      16A     -0.859144    17A     -0.801969    18A     -0.753777  
      19A     -0.701455    20A     -0.682913    21A     -0.647755  
      22A     -0.627401    23A     -0.607706    24A     -0.603823  
      25A     -0.589804    26A     -0.560626    27A     -0.529890  
      28A     -0.503202    29A     -0.489542    30A     -0.422107  
      31A     -0.356116    32A     -0.323011  

    Virtual:                                                              

      33A      0.118903    34A      0.128815    35A      0.183498  
      36A      0.211859    37A      0.240575    38A      0.276848  
      39A      0.297085    40A      0.310586    41A      0.336285  
      42A      0.366446    43A      0.407797    44A      0.442051  
      45A      0.452474    46A      0.494743    47A      0.519428  
      48A      0.543923    49A      0.565421    50A      0.682873  
      51A      0.704518    52A      0.734094    53A      0.737847  
      54A      0.752535    55A      0.771965    56A      0.804917  
      57A      0.807595    58A      0.816732    59A      0.826697  
      60A      0.859758    61A      0.881048    62A      0.897402  
      63A      0.906909    64A      0.928008    65A      0.961403  
      66A      1.000808    67A      1.012466    68A      1.033838  
      69A      1.090752    70A      1.099316    71A      1.109036  
      72A      1.118607    73A      1.127814    74A      1.134331  
      75A      1.156400    76A      1.183815    77A      1.215021  
      78A      1.227091    79A      1.236285    80A      1.241030  
      81A      1.286910    82A      1.339595    83A      1.355013  
      84A      1.360690    85A      1.418774    86A      1.433310  
      87A      1.455248    88A      1.482838    89A      1.565188  
      90A      1.604571    91A      1.620821    92A      1.700816  
      93A      1.708465    94A      1.721874    95A      1.771951  
      96A      1.792080    97A      1.823472    98A      1.886408  
      99A      1.941566   100A      2.012687   101A      2.033077  
     102A      2.049421   103A      2.071992   104A      2.099504  
     105A      2.155355   106A      2.175207   107A      2.229684  
     108A      2.234716   109A      2.263113   110A      2.299563  
     111A      2.319739   112A      2.342663   113A      2.405601  
     114A      2.438719   115A      2.449267   116A      2.456863  
     117A      2.550196   118A      2.575565   119A      2.606907  
     120A      2.636515   121A      2.675350   122A      2.746970  
     123A      2.807157   124A      2.843231   125A      2.878531  
     126A      2.939181   127A      2.948780   128A      3.012817  
     129A      3.028778   130A      3.087407   131A      3.099746  
     132A      3.169527   133A      3.256985   134A      3.300489  
     135A      3.327714   136A      3.374411   137A      3.530141  
     138A      3.830422   139A      4.263221   140A      4.354146  
     141A      4.513339   142A      4.531522   143A      4.570491  
     144A      4.665928   145A      4.745344   146A      4.896312  
     147A      5.180847  

    Final Occupation by Irrep:
              A 
    DOCC [    32 ]

  Energy converged.

  @DF-RHF Final Energy:  -418.27733046700547

   => Energetics <=

    Nuclear Repulsion Energy =            400.8977102330485991
    One-Electron Energy =               -1364.1768774383579057
    Two-Electron Energy =                 545.0018367383031546
    DFT Exchange-Correlation Energy =       0.0000000000000000
    Empirical Dispersion Energy =           0.0000000000000000
    PCM Polarization Energy =               0.0000000000000000
    EFP Energy =                            0.0000000000000000
    Total Energy =                       -418.2773304670060952

    Alert: EFP and PCM quantities not currently incorporated into SCF psivars.

Properties will be evaluated at   0.000000,   0.000000,   0.000000 Bohr
  ==> Properties <==


Properties computed using the SCF density matrix

  Nuclear Dipole Moment: (a.u.)
     X:    -2.2095      Y:     1.7674      Z:     0.6625

  Electronic Dipole Moment: (a.u.)
     X:     1.1248      Y:    -0.7667      Z:    -0.2014

  Dipole Moment: (a.u.)
     X:    -1.0847      Y:     1.0007      Z:     0.4611     Total:     1.5462

  Dipole Moment: (Debye)
     X:    -2.7570      Y:     2.5436      Z:     1.1720     Total:     3.9300


  Saving occupied orbitals to File 180.

*** tstop() called on cx1-1-3-3.cx1.hpc.ic.ac.uk at Tue Jul  5 16:39:31 2016
Module time:
	user time   =      16.59 seconds =       0.28 minutes
	system time =       0.09 seconds =       0.00 minutes
	total time  =         17 seconds =       0.28 minutes
Total time:
	user time   =      16.59 seconds =       0.28 minutes
	system time =       0.09 seconds =       0.00 minutes
	total time  =         17 seconds =       0.28 minutes


Properties will be evaluated at   0.000000,   0.000000,   0.000000 Bohr

Properties computed using the  density matrix

  Nuclear Dipole Moment: (a.u.)
     X:    -2.2095      Y:     1.7674      Z:     0.6625

  Electronic Dipole Moment: (a.u.)
     X:     1.1248      Y:    -0.7667      Z:    -0.2014

  Dipole Moment: (a.u.)
     X:    -1.0847      Y:     1.0007      Z:     0.4611     Total:     1.5462

  Dipole Moment: (Debye)
     X:    -2.7570      Y:     2.5436      Z:     1.1720     Total:     3.9300

  Quadrupole Moment: (Debye Ang)
    XX:   -58.2154     YY:   -52.4603     ZZ:   -46.2657
    XY:     3.4024     XZ:    -5.5953     YZ:     4.1240

  Traceless Quadrupole Moment: (Debye Ang)
    XX:    -5.9016     YY:    -0.1465     ZZ:     6.0481
    XY:     3.4024     XZ:    -5.5953     YZ:     4.1240

  Mulliken Charges: (a.u.)
   Center  Symbol    Alpha    Beta     Spin     Total
       1     H     0.26968  0.26968  0.00000  0.46063
       2     O     4.37415  4.37415  0.00000 -0.74830
       3     C     2.79086  2.79086  0.00000  0.41828
       4     C     3.14375  3.14375  0.00000 -0.28749
       5     C     3.12355  3.12355  0.00000 -0.24709
       6     H     0.39929  0.39929  0.00000  0.20142
       7     C     3.09360  3.09360  0.00000 -0.18720
       8     H     0.38608  0.38608  0.00000  0.22783
       9     C     3.08848  3.08848  0.00000 -0.17696
      10     H     0.39094  0.39094  0.00000  0.21812
      11     C     3.04767  3.04767  0.00000 -0.09534
      12     H     0.38511  0.38511  0.00000  0.22978
      13     C     2.85090  2.85090  0.00000  0.29819
      14     O     4.23006  4.23006  0.00000 -0.46013
      15     H     0.42587  0.42587  0.00000  0.14825

   Total alpha = 32.00000, Total beta = 32.00000, Total charge =  0.00000


*** PSI4 exiting successfully. Buy a developer a beer!
