    -----------------------------------------------------------------------
          Psi4: An Open-Source Ab Initio Electronic Structure Package
                              Psi4 (no tag) Driver

                          Git: Rev {detached?}  

    J. M. Turney, A. C. Simmonett, R. M. Parrish, E. G. Hohenstein,
    F. A. Evangelista, J. T. Fermann, B. J. Mintz, L. A. Burns, J. J. Wilke,
    M. L. Abrams, N. J. Russ, M. L. Leininger, C. L. Janssen, E. T. Seidl,
    W. D. Allen, H. F. Schaefer, R. A. King, E. F. Valeev, C. D. Sherrill,
    and T. D. Crawford, WIREs Comput. Mol. Sci. 2, 556-565 (2012)
    (doi: 10.1002/wcms.93)

                         Additional Contributions by
    A. E. DePrince, M. Saitow, U. Bozkaya, A. Yu. Sokolov
    -----------------------------------------------------------------------


    Psi4 started on: Tue Jul  5 17:04:52 2016

    Process ID:   9127
    PSI4DATADIR: /export131/home/mjharvey/miniconda3/share
    Memory level set to 256.000 MB

  ==> Input File <==

--------------------------------------------------------------------------
set {
	reference rhf
	basis 6-31G*
}


set_num_threads( 1 )
memory 2 gb

molecule MOL {
0 1

H	 -2.455504	 -1.062989	 3.255514
C	 -2.425350	 -0.963885	 2.187839
C	 -1.271134	 -0.975404	 1.562018
H	 -3.351856	 -0.856911	 1.655811
O	 -0.463013	 0.116452	 1.521361
H	 -0.888852	 -1.848845	 1.063865
C	 0.650495	 0.079057	 0.696407
C	 1.682892	 -0.906979	 1.194587
H	 1.127059	 1.048510	 0.602909
H	 0.325769	 -0.246872	 -0.280736
F	 1.084962	 -2.042813	 1.523477
F	 2.585893	 -1.182246	 0.267954
F	 2.320612	 -0.461401	 2.257207

	symmetry c1
}
set optking {
	frozen_dihedral = ("
		11 8 7 9,
		3 5 7 9,
		6 3 5 7
	")
}

ee = energy('scf')
oeprop('DIPOLE', 'QUADRUPOLE', 'MULLIKEN_CHARGES')
f=open( 'psi4out.xyz', 'w' )
f.write( "13  " )
f.write( str(ee) + "\n" )
f.write( MOL.save_string_xyz() )
f.close()
--------------------------------------------------------------------------

  Memory set to   2.000 GiB by Python script.

*** tstart() called on cx1-3-14-4.cx1.hpc.ic.ac.uk
*** at Tue Jul  5 17:04:53 2016


         ---------------------------------------------------------
                                   SCF
            by Justin Turney, Rob Parrish, and Andy Simmonett
                              RHF Reference
                        1 Threads,   2000 MiB Core
         ---------------------------------------------------------

  ==> Geometry <==

    Molecular point group: c1
    Full point group: C1

    Geometry (in Angstrom), charge = 0, multiplicity = 1:

       Center              X                  Y                   Z               Mass       
    ------------   -----------------  -----------------  -----------------  -----------------
           H         -3.128211925242    -0.234839416366     1.864657914113     1.007825032070
           C         -3.098057925242    -0.135735416366     0.796982914113    12.000000000000
           C         -1.943841925242    -0.147254416366     0.171161914113    12.000000000000
           H         -4.024563925242    -0.028761416366     0.264954914113     1.007825032070
           O         -1.135720925242     0.944601583634     0.130504914113    15.994914619560
           H         -1.561559925242    -1.020695416366    -0.326991085887     1.007825032070
           C         -0.022212925242     0.907206583634    -0.694449085887    12.000000000000
           C          1.010184074758    -0.078829416366    -0.196269085887    12.000000000000
           H          0.454351074758     1.876659583634    -0.787947085887     1.007825032070
           H         -0.346938925242     0.581277583634    -1.671592085887     1.007825032070
           F          0.412254074758    -1.214663416366     0.132620914113    18.998403224000
           F          1.913185074758    -0.354096416366    -1.122902085887    18.998403224000
           F          1.647904074758     0.366748583634     0.866350914113    18.998403224000

  Running in c1 symmetry.

  Rotational constants: A =      0.15206  B =      0.04137  C =      0.04006 [cm^-1]
  Rotational constants: A =   4558.77209  B =   1240.21344  C =   1201.02560 [MHz]
  Nuclear repulsion =  417.505883835328234

  Charge       = 0
  Multiplicity = 1
  Electrons    = 64
  Nalpha       = 32
  Nbeta        = 32

  ==> Algorithm <==

  SCF Algorithm Type is DF.
  DIIS enabled.
  MOM disabled.
  Fractional occupation disabled.
  Guess Type is CORE.
  Energy threshold   = 1.00e-06
  Density threshold  = 1.00e-06
  Integral threshold = 0.00e+00

  ==> Primary Basis <==

  Basis Set: 6-31G*
    Number of shells: 58
    Number of basis function: 130
    Number of Cartesian functions: 130
    Spherical Harmonics?: false
    Max angular momentum: 2

  ==> Pre-Iterations <==

   -------------------------------------------------------
    Irrep   Nso     Nmo     Nalpha   Nbeta   Ndocc  Nsocc
   -------------------------------------------------------
     A        130     130       0       0       0       0
   -------------------------------------------------------
    Total     130     130      32      32      32       0
   -------------------------------------------------------

 OEINTS: Overlap, kinetic, potential, dipole, and quadrupole integrals
         stored in file 35.

  ==> Integral Setup <==

  ==> DFJK: Density-Fitted J/K Matrices <==

    J tasked:                  Yes
    K tasked:                  Yes
    wK tasked:                  No
    OpenMP threads:              1
    Integrals threads:           1
    Memory (MB):              1430
    Algorithm:                Core
    Integral Cache:           NONE
    Schwarz Cutoff:          1E-12
    Fitting Condition:       1E-12

   => Auxiliary Basis Set <=

  Basis Set: 
    Number of shells: 237
    Number of basis function: 773
    Number of Cartesian functions: 773
    Spherical Harmonics?: false
    Max angular momentum: 3

  Minimum eigenvalue in the overlap matrix is 1.7752983384E-03.
  Using Symmetric Orthogonalization.
  SCF Guess: Core (One-Electron) Hamiltonian.

  ==> Iterations <==

                           Total Energy        Delta E     RMS |[F,P]|

   @DF-RHF iter   1:  -440.69114757718938   -4.40691e+02   7.47959e-02 
   @DF-RHF iter   2:  -177.30036536010670    2.63391e+02   9.85318e-02 DIIS
   @DF-RHF iter   3:  -491.44963189138815   -3.14149e+02   4.00489e-02 DIIS
   @DF-RHF iter   4:  -422.85779869363881    6.85918e+01   6.66857e-02 DIIS
   @DF-RHF iter   5:  -523.94109355472779   -1.01083e+02   1.57802e-02 DIIS
   @DF-RHF iter   6:  -526.95051611841313   -3.00942e+00   8.04702e-03 DIIS
   @DF-RHF iter   7:  -527.36685377412232   -4.16338e-01   1.73369e-03 DIIS
   @DF-RHF iter   8:  -527.39074707029567   -2.38933e-02   7.90970e-04 DIIS
   @DF-RHF iter   9:  -527.39676315979727   -6.01609e-03   3.50908e-04 DIIS
   @DF-RHF iter  10:  -527.39794995933357   -1.18680e-03   1.74785e-04 DIIS
   @DF-RHF iter  11:  -527.39835400564925   -4.04046e-04   4.26678e-05 DIIS
   @DF-RHF iter  12:  -527.39839910219007   -4.50965e-05   2.09220e-05 DIIS
   @DF-RHF iter  13:  -527.39842556133112   -2.64591e-05   1.51226e-05 DIIS
   @DF-RHF iter  14:  -527.39843674858821   -1.11873e-05   8.11435e-06 DIIS
   @DF-RHF iter  15:  -527.39844275061910   -6.00203e-06   3.39821e-06 DIIS
   @DF-RHF iter  16:  -527.39844349725468   -7.46636e-07   1.07971e-06 DIIS
   @DF-RHF iter  17:  -527.39844355640571   -5.91510e-08   2.58419e-07 DIIS

  ==> Post-Iterations <==

    Orbital Energies (a.u.)
    -----------------------

    Doubly Occupied:                                                      

       1A    -26.360156     2A    -26.356881     3A    -26.353044  
       4A    -20.628511     5A    -11.516802     6A    -11.336773  
       7A    -11.327400     8A    -11.172617     9A     -1.756172  
      10A     -1.656149    11A     -1.651005    12A     -1.455881  
      13A     -1.092348    14A     -1.018337    15A     -0.938057  
      16A     -0.848808    17A     -0.844945    18A     -0.842365  
      19A     -0.787163    20A     -0.740944    21A     -0.723079  
      22A     -0.707597    23A     -0.682262    24A     -0.668419  
      25A     -0.666618    26A     -0.656958    27A     -0.642607  
      28A     -0.590263    29A     -0.575437    30A     -0.530433  
      31A     -0.503315    32A     -0.268435  

    Virtual:                                                              

      33A      0.091005    34A      0.242125    35A      0.264432  
      36A      0.291668    37A      0.299958    38A      0.309700  
      39A      0.366483    40A      0.401687    41A      0.414128  
      42A      0.444343    43A      0.465737    44A      0.504895  
      45A      0.526746    46A      0.680894    47A      0.693498  
      48A      0.716404    49A      0.743679    50A      0.765792  
      51A      0.781203    52A      0.816545    53A      0.839427  
      54A      0.864399    55A      0.902892    56A      0.930850  
      57A      0.942034    58A      1.041319    59A      1.077553  
      60A      1.113581    61A      1.143765    62A      1.162503  
      63A      1.185702    64A      1.216755    65A      1.245442  
      66A      1.260504    67A      1.317693    68A      1.345350  
      69A      1.390962    70A      1.410147    71A      1.433784  
      72A      1.465402    73A      1.579940    74A      1.603584  
      75A      1.633739    76A      1.649439    77A      1.662064  
      78A      1.677209    79A      1.698628    80A      1.734739  
      81A      1.770888    82A      1.821471    83A      1.893774  
      84A      1.947106    85A      1.953728    86A      1.986750  
      87A      2.017654    88A      2.092016    89A      2.100641  
      90A      2.111821    91A      2.136734    92A      2.141230  
      93A      2.174221    94A      2.231114    95A      2.258525  
      96A      2.276089    97A      2.305525    98A      2.338181  
      99A      2.369582   100A      2.387268   101A      2.396911  
     102A      2.417590   103A      2.443710   104A      2.491747  
     105A      2.528461   106A      2.633062   107A      2.689007  
     108A      2.700918   109A      2.745634   110A      2.816074  
     111A      2.850021   112A      2.918893   113A      2.981352  
     114A      3.086758   115A      3.131335   116A      3.154335  
     117A      3.185641   118A      3.286705   119A      3.409525  
     120A      3.415193   121A      3.428055   122A      3.454610  
     123A      4.333995   124A      4.539399   125A      4.635563  
     126A      4.722543   127A      4.858145   128A      4.949491  
     129A      5.177422   130A      5.839353  

    Final Occupation by Irrep:
              A 
    DOCC [    32 ]

  Energy converged.

  @DF-RHF Final Energy:  -527.39844355640571

   => Energetics <=

    Nuclear Repulsion Energy =            417.5058838353282340
    One-Electron Energy =               -1558.0090946226578126
    Two-Electron Energy =                 613.1047672309242671
    DFT Exchange-Correlation Energy =       0.0000000000000000
    Empirical Dispersion Energy =           0.0000000000000000
    PCM Polarization Energy =               0.0000000000000000
    EFP Energy =                            0.0000000000000000
    Total Energy =                       -527.3984435564053683

    Alert: EFP and PCM quantities not currently incorporated into SCF psivars.

Properties will be evaluated at   0.000000,   0.000000,   0.000000 Bohr
  ==> Properties <==


Properties computed using the SCF density matrix

  Nuclear Dipole Moment: (a.u.)
     X:   -11.8225      Y:     2.2387      Z:    -0.4983

  Electronic Dipole Moment: (a.u.)
     X:    12.1179      Y:    -2.1046      Z:    -0.2916

  Dipole Moment: (a.u.)
     X:     0.2955      Y:     0.1341      Z:    -0.7899     Total:     0.8540

  Dipole Moment: (Debye)
     X:     0.7510      Y:     0.3410      Z:    -2.0077     Total:     2.1705


  Saving occupied orbitals to File 180.

*** tstop() called on cx1-3-14-4.cx1.hpc.ic.ac.uk at Tue Jul  5 17:05:03 2016
Module time:
	user time   =      10.12 seconds =       0.17 minutes
	system time =       0.05 seconds =       0.00 minutes
	total time  =         10 seconds =       0.17 minutes
Total time:
	user time   =      10.12 seconds =       0.17 minutes
	system time =       0.05 seconds =       0.00 minutes
	total time  =         10 seconds =       0.17 minutes


Properties will be evaluated at   0.000000,   0.000000,   0.000000 Bohr

Properties computed using the  density matrix

  Nuclear Dipole Moment: (a.u.)
     X:   -11.8225      Y:     2.2387      Z:    -0.4983

  Electronic Dipole Moment: (a.u.)
     X:    12.1179      Y:    -2.1046      Z:    -0.2916

  Dipole Moment: (a.u.)
     X:     0.2955      Y:     0.1341      Z:    -0.7899     Total:     0.8540

  Dipole Moment: (Debye)
     X:     0.7510      Y:     0.3410      Z:    -2.0077     Total:     2.1705

  Quadrupole Moment: (Debye Ang)
    XX:   -50.9696     YY:   -45.4921     ZZ:   -43.8152
    XY:     2.5567     XZ:     2.2142     YZ:    -2.2623

  Traceless Quadrupole Moment: (Debye Ang)
    XX:    -4.2107     YY:     1.2668     ZZ:     2.9438
    XY:     2.5567     XZ:     2.2142     YZ:    -2.2623

  Mulliken Charges: (a.u.)
   Center  Symbol    Alpha    Beta     Spin     Total
       1     H     0.40397  0.40397  0.00000  0.19206
       2     C     3.32015  3.32015  0.00000 -0.64030
       3     C     2.86281  2.86281  0.00000  0.27438
       4     H     0.40019  0.40019  0.00000  0.19962
       5     O     4.27439  4.27439  0.00000 -0.54879
       6     H     0.39179  0.39179  0.00000  0.21642
       7     C     3.07164  3.07164  0.00000 -0.14328
       8     C     2.45668  2.45668  0.00000  1.08663
       9     H     0.38315  0.38315  0.00000  0.23370
      10     H     0.40146  0.40146  0.00000  0.19708
      11     F     4.68179  4.68179  0.00000 -0.36359
      12     F     4.67894  4.67894  0.00000 -0.35787
      13     F     4.67303  4.67303  0.00000 -0.34606

   Total alpha = 32.00000, Total beta = 32.00000, Total charge =  0.00000


*** PSI4 exiting successfully. Buy a developer a beer!
