    -----------------------------------------------------------------------
          Psi4: An Open-Source Ab Initio Electronic Structure Package
                              Psi4 (no tag) Driver

                          Git: Rev {detached?}  

    J. M. Turney, A. C. Simmonett, R. M. Parrish, E. G. Hohenstein,
    F. A. Evangelista, J. T. Fermann, B. J. Mintz, L. A. Burns, J. J. Wilke,
    M. L. Abrams, N. J. Russ, M. L. Leininger, C. L. Janssen, E. T. Seidl,
    W. D. Allen, H. F. Schaefer, R. A. King, E. F. Valeev, C. D. Sherrill,
    and T. D. Crawford, WIREs Comput. Mol. Sci. 2, 556-565 (2012)
    (doi: 10.1002/wcms.93)

                         Additional Contributions by
    A. E. DePrince, M. Saitow, U. Bozkaya, A. Yu. Sokolov
    -----------------------------------------------------------------------


    Psi4 started on: Tue Jul  5 17:46:18 2016

    Process ID:   1973
    PSI4DATADIR: /export131/home/mjharvey/miniconda3/share
    Memory level set to 256.000 MB

  ==> Input File <==

--------------------------------------------------------------------------
set {
	reference rhf
	basis 6-31G*
}


set_num_threads( 1 )
memory 2 gb

molecule MOL {
0 1

H	 -3.457960	 0.166880	 1.449720
O	 -3.367910	 -0.300316	 2.267454
C	 -3.043259	 -1.643282	 2.012310
C	 -1.609705	 -1.833855	 1.529264
H	 -3.184960	 -2.163733	 2.950780
H	 -3.740919	 -2.074362	 1.295219
C	 -1.155425	 -0.793482	 0.502559
H	 -0.948878	 -1.808123	 2.391825
H	 -1.527397	 -2.829329	 1.096108
C	 -1.880370	 -0.931093	 -0.839207
H	 -0.084299	 -0.888694	 0.347674
H	 -1.327192	 0.206812	 0.900362
C	 -3.401643	 -1.090396	 -0.735808
H	 -1.650410	 -0.067457	 -1.460574
H	 -1.478474	 -1.796112	 -1.362584
C	 -3.870415	 -2.398606	 -0.092909
H	 -3.793591	 -0.258486	 -0.154328
H	 -3.840908	 -0.998347	 -1.727982
C	 -5.388859	 -2.465225	 0.084084
H	 -3.391159	 -2.513230	 0.878320
H	 -3.549421	 -3.246616	 -0.693029
C	 -5.860016	 -3.772746	 0.719744
H	 -5.716903	 -1.627968	 0.696355
H	 -5.869720	 -2.341150	 -0.884040
H	 -5.421627	 -3.910373	 1.704172
H	 -6.939563	 -3.788632	 0.833583
H	 -5.579295	 -4.628245	 0.111731

	symmetry c1
}
set optking {
	frozen_dihedral = ("
		14 10 7 4,
		14 10 13 16,
		10 7 4 8,
		10 13 16 20,
		20 16 19 22,
		4 3 2 1
	")
}

ee = energy('scf')
oeprop('DIPOLE', 'QUADRUPOLE', 'MULLIKEN_CHARGES')
f=open( 'psi4out.xyz', 'w' )
f.write( "27  " )
f.write( str(ee) + "\n" )
f.write( MOL.save_string_xyz() )
f.close()
--------------------------------------------------------------------------

  Memory set to   2.000 GiB by Python script.

*** tstart() called on cx1-3-4-2.cx1.hpc.ic.ac.uk
*** at Tue Jul  5 17:46:18 2016


         ---------------------------------------------------------
                                   SCF
            by Justin Turney, Rob Parrish, and Andy Simmonett
                              RHF Reference
                        1 Threads,   2000 MiB Core
         ---------------------------------------------------------

  ==> Geometry <==

    Molecular point group: c1
    Full point group: C1

    Geometry (in Angstrom), charge = 0, multiplicity = 1:

       Center              X                  Y                   Z               Mass       
    ------------   -----------------  -----------------  -----------------  -----------------
           H         -0.150877795062     1.848088871540     0.812946470115     1.007825032070
           O         -0.060827795062     1.380892871540     1.630680470115    15.994914619560
           C          0.263823204938     0.037926871540     1.375536470115    12.000000000000
           C          1.697377204938    -0.152646128460     0.892490470115    12.000000000000
           H          0.122122204938    -0.482524128460     2.314006470115     1.007825032070
           H         -0.433836795062    -0.393153128460     0.658445470115     1.007825032070
           C          2.151657204938     0.887726871540    -0.134214529885    12.000000000000
           H          2.358204204938    -0.126914128460     1.755051470115     1.007825032070
           H          1.779685204938    -1.148120128460     0.459334470115     1.007825032070
           C          1.426712204938     0.750115871540    -1.475980529885    12.000000000000
           H          3.222783204938     0.792514871540    -0.289099529885     1.007825032070
           H          1.979890204938     1.888020871540     0.263588470115     1.007825032070
           C         -0.094560795062     0.590812871540    -1.372581529885    12.000000000000
           H          1.656672204938     1.613751871540    -2.097347529885     1.007825032070
           H          1.828608204938    -0.114903128460    -1.999357529885     1.007825032070
           C         -0.563332795062    -0.717397128460    -0.729682529885    12.000000000000
           H         -0.486508795062     1.422722871540    -0.791101529885     1.007825032070
           H         -0.533825795062     0.682861871540    -2.364755529885     1.007825032070
           C         -2.081776795062    -0.784016128460    -0.552689529885    12.000000000000
           H         -0.084076795062    -0.832021128460     0.241546470115     1.007825032070
           H         -0.242338795062    -1.565407128460    -1.329802529885     1.007825032070
           C         -2.552933795062    -2.091537128460     0.082970470115    12.000000000000
           H         -2.409820795062     0.053240871540     0.059581470115     1.007825032070
           H         -2.562637795062    -0.659941128460    -1.520813529885     1.007825032070
           H         -2.114544795062    -2.229164128460     1.067398470115     1.007825032070
           H         -3.632480795062    -2.107423128460     0.196809470115     1.007825032070
           H         -2.272212795062    -2.947036128460    -0.525042529885     1.007825032070

  Running in c1 symmetry.

  Rotational constants: A =      0.07305  B =      0.03590  C =      0.02979 [cm^-1]
  Rotational constants: A =   2190.07438  B =   1076.29591  C =    893.05245 [MHz]
  Nuclear repulsion =  520.515522368518873

  Charge       = 0
  Multiplicity = 1
  Electrons    = 74
  Nalpha       = 37
  Nbeta        = 37

  ==> Algorithm <==

  SCF Algorithm Type is DF.
  DIIS enabled.
  MOM disabled.
  Fractional occupation disabled.
  Guess Type is CORE.
  Energy threshold   = 1.00e-06
  Density threshold  = 1.00e-06
  Integral threshold = 0.00e+00

  ==> Primary Basis <==

  Basis Set: 6-31G*
    Number of shells: 90
    Number of basis function: 171
    Number of Cartesian functions: 171
    Spherical Harmonics?: false
    Max angular momentum: 2

  ==> Pre-Iterations <==

   -------------------------------------------------------
    Irrep   Nso     Nmo     Nalpha   Nbeta   Ndocc  Nsocc
   -------------------------------------------------------
     A        171     171       0       0       0       0
   -------------------------------------------------------
    Total     171     171      37      37      37       0
   -------------------------------------------------------

 OEINTS: Overlap, kinetic, potential, dipole, and quadrupole integrals
         stored in file 35.

  ==> Integral Setup <==

  ==> DFJK: Density-Fitted J/K Matrices <==

    J tasked:                  Yes
    K tasked:                  Yes
    wK tasked:                  No
    OpenMP threads:              1
    Integrals threads:           1
    Memory (MB):              1430
    Algorithm:                Core
    Integral Cache:           NONE
    Schwarz Cutoff:          1E-12
    Fitting Condition:       1E-12

   => Auxiliary Basis Set <=

  Basis Set: 
    Number of shells: 378
    Number of basis function: 1179
    Number of Cartesian functions: 1179
    Spherical Harmonics?: false
    Max angular momentum: 3

  Minimum eigenvalue in the overlap matrix is 2.5197832624E-03.
  Using Symmetric Orthogonalization.
  SCF Guess: Core (One-Electron) Hamiltonian.

  ==> Iterations <==

                           Total Energy        Delta E     RMS |[F,P]|

   @DF-RHF iter   1:  -282.90061583394129   -2.82901e+02   6.08132e-02 
   @DF-RHF iter   2:    -9.06360211120830    2.73837e+02   6.55735e-02 DIIS
   @DF-RHF iter   3:  -273.92209861346305   -2.64858e+02   5.24053e-02 DIIS
   @DF-RHF iter   4:  -329.84296470552556   -5.59209e+01   4.52507e-02 DIIS
   @DF-RHF iter   5:  -379.95163673098773   -5.01087e+01   1.80110e-02 DIIS
   @DF-RHF iter   6:  -387.56407887020464   -7.61244e+00   5.39136e-03 DIIS
   @DF-RHF iter   7:  -387.98923604737979   -4.25157e-01   1.39073e-03 DIIS
   @DF-RHF iter   8:  -388.01730800907649   -2.80720e-02   4.52423e-04 DIIS
   @DF-RHF iter   9:  -388.02165722743405   -4.34922e-03   1.20019e-04 DIIS
   @DF-RHF iter  10:  -388.02195576956603   -2.98542e-04   4.25056e-05 DIIS
   @DF-RHF iter  11:  -388.02200114681625   -4.53773e-05   1.11284e-05 DIIS
   @DF-RHF iter  12:  -388.02200502051073   -3.87369e-06   4.12136e-06 DIIS
   @DF-RHF iter  13:  -388.02200551596707   -4.95456e-07   1.18878e-06 DIIS
   @DF-RHF iter  14:  -388.02200555824027   -4.22732e-08   3.83202e-07 DIIS

  ==> Post-Iterations <==

    Orbital Energies (a.u.)
    -----------------------

    Doubly Occupied:                                                      

       1A    -20.542419     2A    -11.228049     3A    -11.227909  
       4A    -11.221696     5A    -11.220873     6A    -11.218817  
       7A    -11.216159     8A    -11.214440     9A    -11.191511  
      10A     -1.353812    11A     -1.145951    12A     -1.064629  
      13A     -1.028970    14A     -0.996154    15A     -0.881529  
      16A     -0.868997    17A     -0.819623    18A     -0.768297  
      19A     -0.746090    20A     -0.647900    21A     -0.635351  
      22A     -0.615691    23A     -0.591209    24A     -0.587674  
      25A     -0.580627    26A     -0.570233    27A     -0.552078  
      28A     -0.543912    29A     -0.524766    30A     -0.497255  
      31A     -0.491761    32A     -0.476990    33A     -0.462991  
      34A     -0.455402    35A     -0.453748    36A     -0.428952  
      37A     -0.323659  

    Virtual:                                                              

      38A      0.213989    39A      0.234968    40A      0.241830  
      41A      0.265967    42A      0.278542    43A      0.286824  
      44A      0.293430    45A      0.304902    46A      0.306247  
      47A      0.319682    48A      0.324875    49A      0.337320  
      50A      0.343084    51A      0.348948    52A      0.355134  
      53A      0.370178    54A      0.381962    55A      0.397894  
      56A      0.419969    57A      0.425948    58A      0.443227  
      59A      0.457580    60A      0.467684    61A      0.483960  
      62A      0.503290    63A      0.591673    64A      0.668389  
      65A      0.700877    66A      0.731138    67A      0.744727  
      68A      0.764266    69A      0.781125    70A      0.793868  
      71A      0.832474    72A      0.834935    73A      0.861827  
      74A      0.885846    75A      0.916159    76A      0.928165  
      77A      0.934275    78A      0.958793    79A      0.987235  
      80A      1.014827    81A      1.033729    82A      1.050923  
      83A      1.075525    84A      1.089984    85A      1.102558  
      86A      1.113792    87A      1.127967    88A      1.139381  
      89A      1.160335    90A      1.168127    91A      1.177574  
      92A      1.184735    93A      1.193438    94A      1.197728  
      95A      1.212191    96A      1.218436    97A      1.231562  
      98A      1.234541    99A      1.250800   100A      1.266930  
     101A      1.273252   102A      1.296077   103A      1.299580  
     104A      1.345918   105A      1.376168   106A      1.389668  
     107A      1.452179   108A      1.483277   109A      1.532342  
     110A      1.583239   111A      1.658271   112A      1.685094  
     113A      1.703577   114A      1.734511   115A      1.750393  
     116A      1.783782   117A      1.864219   118A      1.881280  
     119A      1.913796   120A      1.945820   121A      2.004124  
     122A      2.018944   123A      2.042495   124A      2.091925  
     125A      2.162316   126A      2.164332   127A      2.203125  
     128A      2.221585   129A      2.228574   130A      2.250200  
     131A      2.266730   132A      2.279489   133A      2.317835  
     134A      2.345200   135A      2.351556   136A      2.359748  
     137A      2.391160   138A      2.432531   139A      2.490935  
     140A      2.525295   141A      2.575419   142A      2.592954  
     143A      2.615604   144A      2.640222   145A      2.665699  
     146A      2.678403   147A      2.686817   148A      2.746228  
     149A      2.759492   150A      2.762295   151A      2.793573  
     152A      2.819671   153A      2.847480   154A      2.930232  
     155A      2.942202   156A      2.976844   157A      3.007217  
     158A      3.063534   159A      3.099513   160A      3.126993  
     161A      3.169835   162A      3.287432   163A      4.290742  
     164A      4.572701   165A      4.632426   166A      4.761392  
     167A      4.808214   168A      4.866960   169A      4.990483  
     170A      5.031589   171A      5.098741  

    Final Occupation by Irrep:
              A 
    DOCC [    37 ]

  Energy converged.

  @DF-RHF Final Energy:  -388.02200555824027

   => Energetics <=

    Nuclear Repulsion Energy =            520.5155223685188730
    One-Electron Energy =               -1558.2825024090454917
    Two-Electron Energy =                 649.7449744822872617
    DFT Exchange-Correlation Energy =       0.0000000000000000
    Empirical Dispersion Energy =           0.0000000000000000
    PCM Polarization Energy =               0.0000000000000000
    EFP Energy =                            0.0000000000000000
    Total Energy =                       -388.0220055582392433

    Alert: EFP and PCM quantities not currently incorporated into SCF psivars.

Properties will be evaluated at   0.000000,   0.000000,   0.000000 Bohr
  ==> Properties <==


Properties computed using the SCF density matrix

  Nuclear Dipole Moment: (a.u.)
     X:    -1.8520      Y:    -4.0296      Z:    -2.8876

  Electronic Dipole Moment: (a.u.)
     X:     1.9484      Y:     3.6824      Z:     2.1619

  Dipole Moment: (a.u.)
     X:     0.0965      Y:    -0.3472      Z:    -0.7257     Total:     0.8103

  Dipole Moment: (Debye)
     X:     0.2452      Y:    -0.8825      Z:    -1.8447     Total:     2.0595


  Saving occupied orbitals to File 180.

*** tstop() called on cx1-3-4-2.cx1.hpc.ic.ac.uk at Tue Jul  5 17:46:49 2016
Module time:
	user time   =      30.18 seconds =       0.50 minutes
	system time =       0.28 seconds =       0.00 minutes
	total time  =         31 seconds =       0.52 minutes
Total time:
	user time   =      30.18 seconds =       0.50 minutes
	system time =       0.28 seconds =       0.00 minutes
	total time  =         31 seconds =       0.52 minutes


Properties will be evaluated at   0.000000,   0.000000,   0.000000 Bohr

Properties computed using the  density matrix

  Nuclear Dipole Moment: (a.u.)
     X:    -1.8520      Y:    -4.0296      Z:    -2.8876

  Electronic Dipole Moment: (a.u.)
     X:     1.9484      Y:     3.6824      Z:     2.1619

  Dipole Moment: (a.u.)
     X:     0.0965      Y:    -0.3472      Z:    -0.7257     Total:     0.8103

  Dipole Moment: (Debye)
     X:     0.2452      Y:    -0.8825      Z:    -1.8447     Total:     2.0595

  Quadrupole Moment: (Debye Ang)
    XX:   -59.5069     YY:   -60.6649     ZZ:   -65.0545
    XY:     0.0405     XZ:     0.9008     YZ:    -4.7682

  Traceless Quadrupole Moment: (Debye Ang)
    XX:     2.2352     YY:     1.0772     ZZ:    -3.3124
    XY:     0.0405     XZ:     0.9008     YZ:    -4.7682

  Mulliken Charges: (a.u.)
   Center  Symbol    Alpha    Beta     Spin     Total
       1     H     0.27324  0.27324  0.00000  0.45353
       2     O     4.38266  4.38266  0.00000 -0.76532
       3     C     3.03576  3.03576  0.00000 -0.07153
       4     C     3.19103  3.19103  0.00000 -0.38207
       5     H     0.41592  0.41592  0.00000  0.16816
       6     H     0.37630  0.37630  0.00000  0.24739
       7     C     3.16255  3.16255  0.00000 -0.32510
       8     H     0.40626  0.40626  0.00000  0.18748
       9     H     0.41685  0.41685  0.00000  0.16630
      10     C     3.15167  3.15167  0.00000 -0.30334
      11     H     0.41534  0.41534  0.00000  0.16933
      12     H     0.41595  0.41595  0.00000  0.16809
      13     C     3.16765  3.16765  0.00000 -0.33530
      14     H     0.41821  0.41821  0.00000  0.16359
      15     H     0.42049  0.42049  0.00000  0.15902
      16     C     3.20774  3.20774  0.00000 -0.41548
      17     H     0.43858  0.43858  0.00000  0.12284
      18     H     0.40818  0.40818  0.00000  0.18363
      19     C     3.16532  3.16532  0.00000 -0.33063
      20     H     0.38134  0.38134  0.00000  0.23732
      21     H     0.42212  0.42212  0.00000  0.15575
      22     C     3.23975  3.23975  0.00000 -0.47950
      23     H     0.41663  0.41663  0.00000  0.16674
      24     H     0.41353  0.41353  0.00000  0.17295
      25     H     0.42167  0.42167  0.00000  0.15667
      26     H     0.41601  0.41601  0.00000  0.16797
      27     H     0.41924  0.41924  0.00000  0.16152

   Total alpha = 37.00000, Total beta = 37.00000, Total charge =  0.00000


*** PSI4 exiting successfully. Buy a developer a beer!
