    -----------------------------------------------------------------------
          Psi4: An Open-Source Ab Initio Electronic Structure Package
                              Psi4 (no tag) Driver

                          Git: Rev {detached?}  

    J. M. Turney, A. C. Simmonett, R. M. Parrish, E. G. Hohenstein,
    F. A. Evangelista, J. T. Fermann, B. J. Mintz, L. A. Burns, J. J. Wilke,
    M. L. Abrams, N. J. Russ, M. L. Leininger, C. L. Janssen, E. T. Seidl,
    W. D. Allen, H. F. Schaefer, R. A. King, E. F. Valeev, C. D. Sherrill,
    and T. D. Crawford, WIREs Comput. Mol. Sci. 2, 556-565 (2012)
    (doi: 10.1002/wcms.93)

                         Additional Contributions by
    A. E. DePrince, M. Saitow, U. Bozkaya, A. Yu. Sokolov
    -----------------------------------------------------------------------


    Psi4 started on: Tue Jul  5 16:29:00 2016

    Process ID:  15927
    PSI4DATADIR: /export131/home/mjharvey/miniconda3/share
    Memory level set to 256.000 MB

  ==> Input File <==

--------------------------------------------------------------------------
set {
	reference rhf
	basis 6-31G*
}


set_num_threads( 1 )
memory 2 gb

molecule MOL {
0 1

H	 1.492903	 3.648315	 -1.051250
O	 0.945103	 3.148837	 -0.462925
C	 0.933123	 1.800208	 -0.858179
C	 0.031547	 1.023609	 0.088541
H	 1.937807	 1.383102	 -0.819176
H	 0.583792	 1.706318	 -1.883973
C	 -1.134819	 0.293262	 -0.585751
H	 -0.364656	 1.721166	 0.821156
H	 0.648061	 0.310390	 0.633012
C	 -1.917817	 -0.639439	 0.339494
H	 -0.758119	 -0.268455	 -1.433105
H	 -1.813832	 1.041889	 -0.986690
H	 -2.777680	 -1.057197	 -0.174994
H	 -1.310268	 -1.471279	 0.680599
H	 -2.283753	 -0.111424	 1.216626

	symmetry c1
}
set optking {
	frozen_dihedral = ("
		8 4 7 11,
		1 2 3 4
	")
}

ee = energy('scf')
oeprop('DIPOLE', 'QUADRUPOLE', 'MULLIKEN_CHARGES')
f=open( 'psi4out.xyz', 'w' )
f.write( "15  " )
f.write( str(ee) + "\n" )
f.write( MOL.save_string_xyz() )
f.close()
--------------------------------------------------------------------------

  Memory set to   2.000 GiB by Python script.

*** tstart() called on cx1-1-3-3.cx1.hpc.ic.ac.uk
*** at Tue Jul  5 16:29:00 2016


         ---------------------------------------------------------
                                   SCF
            by Justin Turney, Rob Parrish, and Andy Simmonett
                              RHF Reference
                        1 Threads,   2000 MiB Core
         ---------------------------------------------------------

  ==> Geometry <==

    Molecular point group: c1
    Full point group: C1

    Geometry (in Angstrom), charge = 0, multiplicity = 1:

       Center              X                  Y                   Z               Mass       
    ------------   -----------------  -----------------  -----------------  -----------------
           H          1.690286874764     2.473072942190    -0.745924330299     1.007825032070
           O          1.142486874764     1.973594942190    -0.157599330299    15.994914619560
           C          1.130506874764     0.624965942190    -0.552853330299    12.000000000000
           C          0.228930874764    -0.151633057810     0.393866669701    12.000000000000
           H          2.135190874764     0.207859942190    -0.513850330299     1.007825032070
           H          0.781175874764     0.531075942190    -1.578647330299     1.007825032070
           C         -0.937435125236    -0.881980057810    -0.280425330299    12.000000000000
           H         -0.167272125236     0.545923942190     1.126481669701     1.007825032070
           H          0.845444874764    -0.864852057810     0.938337669701     1.007825032070
           C         -1.720433125236    -1.814681057810     0.644819669701    12.000000000000
           H         -0.560735125236    -1.443697057810    -1.127779330299     1.007825032070
           H         -1.616448125236    -0.133353057810    -0.681364330299     1.007825032070
           H         -2.580296125236    -2.232439057810     0.130331669701     1.007825032070
           H         -1.112884125236    -2.646521057810     0.985924669701     1.007825032070
           H         -2.086369125236    -1.286666057810     1.521951669701     1.007825032070

  Running in c1 symmetry.

  Rotational constants: A =      0.56380  B =      0.06685  C =      0.06586 [cm^-1]
  Rotational constants: A =  16902.32703  B =   2004.21984  C =   1974.32732 [MHz]
  Nuclear repulsion =  185.933839027404900

  Charge       = 0
  Multiplicity = 1
  Electrons    = 42
  Nalpha       = 21
  Nbeta        = 21

  ==> Algorithm <==

  SCF Algorithm Type is DF.
  DIIS enabled.
  MOM disabled.
  Fractional occupation disabled.
  Guess Type is CORE.
  Energy threshold   = 1.00e-06
  Density threshold  = 1.00e-06
  Integral threshold = 0.00e+00

  ==> Primary Basis <==

  Basis Set: 6-31G*
    Number of shells: 50
    Number of basis function: 95
    Number of Cartesian functions: 95
    Spherical Harmonics?: false
    Max angular momentum: 2

  ==> Pre-Iterations <==

   -------------------------------------------------------
    Irrep   Nso     Nmo     Nalpha   Nbeta   Ndocc  Nsocc
   -------------------------------------------------------
     A         95      95       0       0       0       0
   -------------------------------------------------------
    Total      95      95      21      21      21       0
   -------------------------------------------------------

 OEINTS: Overlap, kinetic, potential, dipole, and quadrupole integrals
         stored in file 35.

  ==> Integral Setup <==

  ==> DFJK: Density-Fitted J/K Matrices <==

    J tasked:                  Yes
    K tasked:                  Yes
    wK tasked:                  No
    OpenMP threads:              1
    Integrals threads:           1
    Memory (MB):              1430
    Algorithm:                Core
    Integral Cache:           NONE
    Schwarz Cutoff:          1E-12
    Fitting Condition:       1E-12

   => Auxiliary Basis Set <=

  Basis Set: 
    Number of shells: 210
    Number of basis function: 655
    Number of Cartesian functions: 655
    Spherical Harmonics?: false
    Max angular momentum: 3

  Minimum eigenvalue in the overlap matrix is 3.9076473723E-03.
  Using Symmetric Orthogonalization.
  SCF Guess: Core (One-Electron) Hamiltonian.

  ==> Iterations <==

                           Total Energy        Delta E     RMS |[F,P]|

   @DF-RHF iter   1:  -181.18071823479121   -1.81181e+02   8.03458e-02 
   @DF-RHF iter   2:   -97.93844617192784    8.32423e+01   9.50369e-02 DIIS
   @DF-RHF iter   3:  -191.54685023517581   -9.36084e+01   5.04272e-02 DIIS
   @DF-RHF iter   4:  -170.28190666288688    2.12649e+01   7.24651e-02 DIIS
   @DF-RHF iter   5:  -231.60632696488611   -6.13244e+01   1.01203e-02 DIIS
   @DF-RHF iter   6:  -232.06919988473086   -4.62873e-01   3.96722e-03 DIIS
   @DF-RHF iter   7:  -232.12385105414748   -5.46512e-02   1.47389e-03 DIIS
   @DF-RHF iter   8:  -232.13588372380238   -1.20327e-02   5.56363e-04 DIIS
   @DF-RHF iter   9:  -232.13802077675021   -2.13705e-03   1.57024e-04 DIIS
   @DF-RHF iter  10:  -232.13818823464615   -1.67458e-04   4.78403e-05 DIIS
   @DF-RHF iter  11:  -232.13820610895820   -1.78743e-05   1.19292e-05 DIIS
   @DF-RHF iter  12:  -232.13820725701137   -1.14805e-06   3.12459e-06 DIIS
   @DF-RHF iter  13:  -232.13820732539901   -6.83876e-08   7.65811e-07 DIIS

  ==> Post-Iterations <==

    Orbital Energies (a.u.)
    -----------------------

    Doubly Occupied:                                                      

       1A    -20.551865     2A    -11.266804     3A    -11.216080  
       4A    -11.209627     5A    -11.208833     6A     -1.358569  
       7A     -1.066919     8A     -0.974623     9A     -0.857504  
      10A     -0.792893    11A     -0.701477    12A     -0.638339  
      13A     -0.615497    14A     -0.589128    15A     -0.552280  
      16A     -0.528115    17A     -0.510941    18A     -0.473607  
      19A     -0.467664    20A     -0.463394    21A     -0.427324  

    Virtual:                                                              

      22A      0.228600    23A      0.239453    24A      0.275984  
      25A      0.284000    26A      0.300246    27A      0.315434  
      28A      0.333409    29A      0.341000    30A      0.345850  
      31A      0.367698    32A      0.410848    33A      0.434385  
      34A      0.448094    35A      0.474528    36A      0.706080  
      37A      0.729645    38A      0.753539    39A      0.777788  
      40A      0.799801    41A      0.855100    42A      0.920689  
      43A      0.933444    44A      0.952217    45A      0.983075  
      46A      1.022765    47A      1.080035    48A      1.119985  
      49A      1.129316    50A      1.140462    51A      1.168026  
      52A      1.175612    53A      1.191382    54A      1.206503  
      55A      1.220443    56A      1.232040    57A      1.239412  
      58A      1.267051    59A      1.293719    60A      1.334516  
      61A      1.460564    62A      1.480688    63A      1.650199  
      64A      1.693372    65A      1.761898    66A      1.826381  
      67A      1.878695    68A      2.005567    69A      2.046571  
      70A      2.082897    71A      2.114209    72A      2.203662  
      73A      2.251734    74A      2.293064    75A      2.341183  
      76A      2.346153    77A      2.400546    78A      2.428903  
      79A      2.565830    80A      2.612095    81A      2.662379  
      82A      2.696160    83A      2.720923    84A      2.778348  
      85A      2.822228    86A      2.901913    87A      2.929481  
      88A      3.023932    89A      3.118773    90A      3.228300  
      91A      4.177534    92A      4.565045    93A      4.682319  
      94A      4.826601    95A      4.973916  

    Final Occupation by Irrep:
              A 
    DOCC [    21 ]

  Energy converged.

  @DF-RHF Final Energy:  -232.13820732539901

   => Energetics <=

    Nuclear Repulsion Energy =            185.9338390274049004
    One-Electron Energy =                -683.2012726686762107
    Two-Electron Energy =                 265.1292263158724722
    DFT Exchange-Correlation Energy =       0.0000000000000000
    Empirical Dispersion Energy =           0.0000000000000000
    PCM Polarization Energy =               0.0000000000000000
    EFP Energy =                            0.0000000000000000
    Total Energy =                       -232.1382073253988096

    Alert: EFP and PCM quantities not currently incorporated into SCF psivars.

Properties will be evaluated at   0.000000,   0.000000,   0.000000 Bohr
  ==> Properties <==


Properties computed using the SCF density matrix

  Nuclear Dipole Moment: (a.u.)
     X:    -2.4993      Y:    -4.5369      Z:     0.0512

  Electronic Dipole Moment: (a.u.)
     X:     2.8146      Y:     4.3061      Z:    -0.5762

  Dipole Moment: (a.u.)
     X:     0.3153      Y:    -0.2307      Z:    -0.5249     Total:     0.6544

  Dipole Moment: (Debye)
     X:     0.8014      Y:    -0.5865      Z:    -1.3343     Total:     1.6633


  Saving occupied orbitals to File 180.

*** tstop() called on cx1-1-3-3.cx1.hpc.ic.ac.uk at Tue Jul  5 16:29:06 2016
Module time:
	user time   =       5.58 seconds =       0.09 minutes
	system time =       0.05 seconds =       0.00 minutes
	total time  =          6 seconds =       0.10 minutes
Total time:
	user time   =       5.58 seconds =       0.09 minutes
	system time =       0.05 seconds =       0.00 minutes
	total time  =          6 seconds =       0.10 minutes


Properties will be evaluated at   0.000000,   0.000000,   0.000000 Bohr

Properties computed using the  density matrix

  Nuclear Dipole Moment: (a.u.)
     X:    -2.4993      Y:    -4.5369      Z:     0.0512

  Electronic Dipole Moment: (a.u.)
     X:     2.8146      Y:     4.3061      Z:    -0.5762

  Dipole Moment: (a.u.)
     X:     0.3153      Y:    -0.2307      Z:    -0.5249     Total:     0.6544

  Dipole Moment: (Debye)
     X:     0.8014      Y:    -0.5865      Z:    -1.3343     Total:     1.6633

  Quadrupole Moment: (Debye Ang)
    XX:   -30.8165     YY:   -33.9210     ZZ:   -32.4639
    XY:     1.4749     XZ:    -2.4915     YZ:    -2.8983

  Traceless Quadrupole Moment: (Debye Ang)
    XX:     1.5840     YY:    -1.5205     ZZ:    -0.0634
    XY:     1.4749     XZ:    -2.4915     YZ:    -2.8983

  Mulliken Charges: (a.u.)
   Center  Symbol    Alpha    Beta     Spin     Total
       1     H     0.28202  0.28202  0.00000  0.43595
       2     O     4.37083  4.37083  0.00000 -0.74165
       3     C     2.99492  2.99492  0.00000  0.01017
       4     C     3.16475  3.16475  0.00000 -0.32951
       5     H     0.43038  0.43038  0.00000  0.13924
       6     H     0.42962  0.42962  0.00000  0.14077
       7     C     3.15768  3.15768  0.00000 -0.31536
       8     H     0.40345  0.40345  0.00000  0.19311
       9     H     0.42207  0.42207  0.00000  0.15587
      10     C     3.24014  3.24014  0.00000 -0.48027
      11     H     0.42456  0.42456  0.00000  0.15088
      12     H     0.41898  0.41898  0.00000  0.16204
      13     H     0.41919  0.41919  0.00000  0.16161
      14     H     0.42140  0.42140  0.00000  0.15719
      15     H     0.42002  0.42002  0.00000  0.15997

   Total alpha = 21.00000, Total beta = 21.00000, Total charge =  0.00000


*** PSI4 exiting successfully. Buy a developer a beer!
