    -----------------------------------------------------------------------
          Psi4: An Open-Source Ab Initio Electronic Structure Package
                              Psi4 (no tag) Driver

                          Git: Rev {detached?}  

    J. M. Turney, A. C. Simmonett, R. M. Parrish, E. G. Hohenstein,
    F. A. Evangelista, J. T. Fermann, B. J. Mintz, L. A. Burns, J. J. Wilke,
    M. L. Abrams, N. J. Russ, M. L. Leininger, C. L. Janssen, E. T. Seidl,
    W. D. Allen, H. F. Schaefer, R. A. King, E. F. Valeev, C. D. Sherrill,
    and T. D. Crawford, WIREs Comput. Mol. Sci. 2, 556-565 (2012)
    (doi: 10.1002/wcms.93)

                         Additional Contributions by
    A. E. DePrince, M. Saitow, U. Bozkaya, A. Yu. Sokolov
    -----------------------------------------------------------------------


    Psi4 started on: Tue Jul  5 16:45:54 2016

    Process ID:  31732
    PSI4DATADIR: /export131/home/mjharvey/miniconda3/share
    Memory level set to 256.000 MB

  ==> Input File <==

--------------------------------------------------------------------------
set {
	reference rhf
	basis 6-31G*
}


set_num_threads( 1 )
memory 2 gb

molecule MOL {
0 1

O	 0.888560	 1.036733	 0.704466
C	 0.576249	 0.131685	 -0.000108
C	 -0.766779	 -0.556801	 -0.000461
O	 1.391071	 -0.402883	 -0.900645
C	 -1.945214	 0.412366	 0.000161
H	 -0.796911	 -1.211249	 -0.867467
H	 -0.796854	 -1.212390	 0.865687
C	 -1.512928	 1.841255	 -0.325375
H	 -2.431207	 0.384417	 0.969507
H	 -2.685041	 0.076758	 -0.718586
H	 -0.794054	 2.212234	 0.399917
H	 -2.364274	 2.513992	 -0.319374
H	 -1.051752	 1.901375	 -1.307299
C	 2.689147	 0.153576	 -1.003392
H	 2.634374	 1.198297	 -1.273763
H	 3.190088	 -0.407164	 -1.777016
H	 3.219560	 0.056275	 -0.067067

	symmetry c1
}
set optking {
	frozen_dihedral = ("
		1 2 3 6,
		14 4 2 1
	")
}

ee = energy('scf')
oeprop('DIPOLE', 'QUADRUPOLE', 'MULLIKEN_CHARGES')
f=open( 'psi4out.xyz', 'w' )
f.write( "17  " )
f.write( str(ee) + "\n" )
f.write( MOL.save_string_xyz() )
f.close()
--------------------------------------------------------------------------

  Memory set to   2.000 GiB by Python script.

*** tstart() called on cx1-3-2-3.cx1.hpc.ic.ac.uk
*** at Tue Jul  5 16:45:55 2016


         ---------------------------------------------------------
                                   SCF
            by Justin Turney, Rob Parrish, and Andy Simmonett
                              RHF Reference
                        1 Threads,   2000 MiB Core
         ---------------------------------------------------------

  ==> Geometry <==

    Molecular point group: c1
    Full point group: C1

    Geometry (in Angstrom), charge = 0, multiplicity = 1:

       Center              X                  Y                   Z               Mass       
    ------------   -----------------  -----------------  -----------------  -----------------
           O          0.662657328050     0.649941853901     0.931916879540    15.994914619560
           C          0.350346328050    -0.255106146099     0.227342879540    12.000000000000
           C         -0.992681671950    -0.943592146099     0.226989879540    12.000000000000
           O          1.165168328050    -0.789674146099    -0.673194120460    15.994914619560
           C         -2.171116671950     0.025574853901     0.227611879540    12.000000000000
           H         -1.022813671950    -1.598040146099    -0.640016120460     1.007825032070
           H         -1.022756671950    -1.599181146099     1.093137879540     1.007825032070
           C         -1.738830671950     1.454463853901    -0.097924120460    12.000000000000
           H         -2.657109671950    -0.002374146099     1.196957879540     1.007825032070
           H         -2.910943671950    -0.310033146099    -0.491135120460     1.007825032070
           H         -1.019956671950     1.825442853901     0.627367879540     1.007825032070
           H         -2.590176671950     2.127200853901    -0.091923120460     1.007825032070
           H         -1.277654671950     1.514583853901    -1.079848120460     1.007825032070
           C          2.463244328050    -0.233215146099    -0.775941120460    12.000000000000
           H          2.408471328050     0.811505853901    -1.046312120460     1.007825032070
           H          2.964185328050    -0.793955146099    -1.549565120460     1.007825032070
           H          2.993657328050    -0.330516146099     0.160383879540     1.007825032070

  Running in c1 symmetry.

  Rotational constants: A =      0.18005  B =      0.05521  C =      0.04986 [cm^-1]
  Rotational constants: A =   5397.76548  B =   1655.01578  C =   1494.70674 [MHz]
  Nuclear repulsion =  324.358973894792825

  Charge       = 0
  Multiplicity = 1
  Electrons    = 56
  Nalpha       = 28
  Nbeta        = 28

  ==> Algorithm <==

  SCF Algorithm Type is DF.
  DIIS enabled.
  MOM disabled.
  Fractional occupation disabled.
  Guess Type is CORE.
  Energy threshold   = 1.00e-06
  Density threshold  = 1.00e-06
  Integral threshold = 0.00e+00

  ==> Primary Basis <==

  Basis Set: 6-31G*
    Number of shells: 62
    Number of basis function: 125
    Number of Cartesian functions: 125
    Spherical Harmonics?: false
    Max angular momentum: 2

  ==> Pre-Iterations <==

   -------------------------------------------------------
    Irrep   Nso     Nmo     Nalpha   Nbeta   Ndocc  Nsocc
   -------------------------------------------------------
     A        125     125       0       0       0       0
   -------------------------------------------------------
    Total     125     125      28      28      28       0
   -------------------------------------------------------

 OEINTS: Overlap, kinetic, potential, dipole, and quadrupole integrals
         stored in file 35.

  ==> Integral Setup <==

  ==> DFJK: Density-Fitted J/K Matrices <==

    J tasked:                  Yes
    K tasked:                  Yes
    wK tasked:                  No
    OpenMP threads:              1
    Integrals threads:           1
    Memory (MB):              1430
    Algorithm:                Core
    Integral Cache:           NONE
    Schwarz Cutoff:          1E-12
    Fitting Condition:       1E-12

   => Auxiliary Basis Set <=

  Basis Set: 
    Number of shells: 258
    Number of basis function: 817
    Number of Cartesian functions: 817
    Spherical Harmonics?: false
    Max angular momentum: 3

  Minimum eigenvalue in the overlap matrix is 2.7176577883E-03.
  Using Symmetric Orthogonalization.
  SCF Guess: Core (One-Electron) Hamiltonian.

  ==> Iterations <==

                           Total Energy        Delta E     RMS |[F,P]|

   @DF-RHF iter   1:  -234.93797924238322   -2.34938e+02   8.35677e-02 
   @DF-RHF iter   2:  -209.42434678643895    2.55136e+01   6.82438e-02 DIIS
   @DF-RHF iter   3:  -275.67326136926545   -6.62489e+01   5.70844e-02 DIIS
   @DF-RHF iter   4:  -298.36132824264951   -2.26881e+01   5.10394e-02 DIIS
   @DF-RHF iter   5:  -329.98570655472895   -3.16244e+01   3.12451e-02 DIIS
   @DF-RHF iter   6:  -344.57734830238189   -1.45916e+01   6.06218e-03 DIIS
   @DF-RHF iter   7:  -344.82236322567201   -2.45015e-01   2.86295e-03 DIIS
   @DF-RHF iter   8:  -344.88395544150478   -6.15922e-02   7.41018e-04 DIIS
   @DF-RHF iter   9:  -344.88905455590270   -5.09911e-03   3.36517e-04 DIIS
   @DF-RHF iter  10:  -344.89030077544351   -1.24622e-03   1.36146e-04 DIIS
   @DF-RHF iter  11:  -344.89049099631359   -1.90221e-04   4.68117e-05 DIIS
   @DF-RHF iter  12:  -344.89051199258699   -2.09963e-05   2.13054e-05 DIIS
   @DF-RHF iter  13:  -344.89051609445153   -4.10186e-06   4.04787e-06 DIIS
   @DF-RHF iter  14:  -344.89051635534838   -2.60897e-07   8.33022e-07 DIIS

  ==> Post-Iterations <==

    Orbital Energies (a.u.)
    -----------------------

    Doubly Occupied:                                                      

       1A    -20.606419     2A    -20.543900     3A    -11.373418  
       4A    -11.281461     5A    -11.233444     6A    -11.224720  
       7A    -11.199606     8A     -1.471428     9A     -1.365352  
      10A     -1.081178    11A     -0.997615    12A     -0.936364  
      13A     -0.831659    14A     -0.769386    15A     -0.693116  
      16A     -0.683155    17A     -0.671185    18A     -0.633583  
      19A     -0.614439    20A     -0.572998    21A     -0.551530  
      22A     -0.528664    23A     -0.520976    24A     -0.505926  
      25A     -0.484000    26A     -0.471946    27A     -0.453479  
      28A     -0.427447  

    Virtual:                                                              

      29A      0.189909    30A      0.239312    31A      0.260906  
      32A      0.271654    33A      0.294669    34A      0.305345  
      35A      0.316848    36A      0.326393    37A      0.334395  
      38A      0.338606    39A      0.361597    40A      0.381772  
      41A      0.393831    42A      0.441199    43A      0.496459  
      44A      0.526988    45A      0.570491    46A      0.718865  
      47A      0.729752    48A      0.741911    49A      0.753272  
      50A      0.784417    51A      0.804419    52A      0.806419  
      53A      0.829403    54A      0.872672    55A      0.911331  
      56A      0.933278    57A      0.955744    58A      0.986924  
      59A      1.047492    60A      1.061152    61A      1.103430  
      62A      1.116805    63A      1.127816    64A      1.130330  
      65A      1.141873    66A      1.176466    67A      1.184124  
      68A      1.199018    69A      1.214928    70A      1.235841  
      71A      1.243992    72A      1.278182    73A      1.291692  
      74A      1.318441    75A      1.367207    76A      1.385483  
      77A      1.427931    78A      1.500586    79A      1.526962  
      80A      1.629011    81A      1.682570    82A      1.748125  
      83A      1.761688    84A      1.820181    85A      1.886301  
      86A      1.943984    87A      1.971248    88A      2.012442  
      89A      2.076521    90A      2.123335    91A      2.163259  
      92A      2.185135    93A      2.214497    94A      2.241282  
      95A      2.275207    96A      2.310989    97A      2.361992  
      98A      2.400604    99A      2.403917   100A      2.448710  
     101A      2.452874   102A      2.534961   103A      2.599142  
     104A      2.659110   105A      2.673853   106A      2.698723  
     107A      2.707360   108A      2.759137   109A      2.802129  
     110A      2.818696   111A      2.887965   112A      2.977235  
     113A      3.026277   114A      3.127730   115A      3.154040  
     116A      3.358167   117A      3.430233   118A      3.556886  
     119A      4.446341   120A      4.551209   121A      4.667270  
     122A      4.673405   123A      4.758900   124A      4.841545  
     125A      5.063482  

    Final Occupation by Irrep:
              A 
    DOCC [    28 ]

  Energy converged.

  @DF-RHF Final Energy:  -344.89051635534838

   => Energetics <=

    Nuclear Repulsion Energy =            324.3589738947928254
    One-Electron Energy =               -1113.0420165774789893
    Two-Electron Energy =                 443.7925263273380665
    DFT Exchange-Correlation Energy =       0.0000000000000000
    Empirical Dispersion Energy =           0.0000000000000000
    PCM Polarization Energy =               0.0000000000000000
    EFP Energy =                            0.0000000000000000
    Total Energy =                       -344.8905163553480975

    Alert: EFP and PCM quantities not currently incorporated into SCF psivars.

Properties will be evaluated at   0.000000,   0.000000,   0.000000 Bohr
  ==> Properties <==


Properties computed using the SCF density matrix

  Nuclear Dipole Moment: (a.u.)
     X:    -3.8677      Y:     1.5411      Z:    -1.7058

  Electronic Dipole Moment: (a.u.)
     X:     3.9213      Y:    -2.0465      Z:     1.2545

  Dipole Moment: (a.u.)
     X:     0.0536      Y:    -0.5054      Z:    -0.4514     Total:     0.6797

  Dipole Moment: (Debye)
     X:     0.1362      Y:    -1.2847      Z:    -1.1472     Total:     1.7277


  Saving occupied orbitals to File 180.

*** tstop() called on cx1-3-2-3.cx1.hpc.ic.ac.uk at Tue Jul  5 16:46:08 2016
Module time:
	user time   =      12.78 seconds =       0.21 minutes
	system time =       0.06 seconds =       0.00 minutes
	total time  =         13 seconds =       0.22 minutes
Total time:
	user time   =      12.78 seconds =       0.21 minutes
	system time =       0.06 seconds =       0.00 minutes
	total time  =         13 seconds =       0.22 minutes


Properties will be evaluated at   0.000000,   0.000000,   0.000000 Bohr

Properties computed using the  density matrix

  Nuclear Dipole Moment: (a.u.)
     X:    -3.8677      Y:     1.5411      Z:    -1.7058

  Electronic Dipole Moment: (a.u.)
     X:     3.9213      Y:    -2.0465      Z:     1.2545

  Dipole Moment: (a.u.)
     X:     0.0536      Y:    -0.5054      Z:    -0.4514     Total:     0.6797

  Dipole Moment: (Debye)
     X:     0.1362      Y:    -1.2847      Z:    -1.1472     Total:     1.7277

  Quadrupole Moment: (Debye Ang)
    XX:   -37.6622     YY:   -44.8399     ZZ:   -44.6465
    XY:     0.1264     XZ:    -2.7301     YZ:    -2.7122

  Traceless Quadrupole Moment: (Debye Ang)
    XX:     4.7207     YY:    -2.4571     ZZ:    -2.2636
    XY:     0.1264     XZ:    -2.7301     YZ:    -2.7122

  Mulliken Charges: (a.u.)
   Center  Symbol    Alpha    Beta     Spin     Total
       1     O     4.28771  4.28771  0.00000 -0.57542
       2     C     2.60725  2.60725  0.00000  0.78551
       3     C     3.21081  3.21081  0.00000 -0.42163
       4     O     4.30313  4.30313  0.00000 -0.60626
       5     C     3.15230  3.15230  0.00000 -0.30460
       6     H     0.39801  0.39801  0.00000  0.20398
       7     H     0.39750  0.39750  0.00000  0.20501
       8     C     3.26415  3.26415  0.00000 -0.52830
       9     H     0.41432  0.41432  0.00000  0.17136
      10     H     0.41493  0.41493  0.00000  0.17014
      11     H     0.38465  0.38465  0.00000  0.23071
      12     H     0.42064  0.42064  0.00000  0.15872
      13     H     0.42545  0.42545  0.00000  0.14910
      14     C     3.09333  3.09333  0.00000 -0.18667
      15     H     0.40895  0.40895  0.00000  0.18211
      16     H     0.40815  0.40815  0.00000  0.18369
      17     H     0.40873  0.40873  0.00000  0.18253

   Total alpha = 28.00000, Total beta = 28.00000, Total charge = -0.00000


*** PSI4 exiting successfully. Buy a developer a beer!
