    -----------------------------------------------------------------------
          Psi4: An Open-Source Ab Initio Electronic Structure Package
                              Psi4 (no tag) Driver

                          Git: Rev {detached?}  

    J. M. Turney, A. C. Simmonett, R. M. Parrish, E. G. Hohenstein,
    F. A. Evangelista, J. T. Fermann, B. J. Mintz, L. A. Burns, J. J. Wilke,
    M. L. Abrams, N. J. Russ, M. L. Leininger, C. L. Janssen, E. T. Seidl,
    W. D. Allen, H. F. Schaefer, R. A. King, E. F. Valeev, C. D. Sherrill,
    and T. D. Crawford, WIREs Comput. Mol. Sci. 2, 556-565 (2012)
    (doi: 10.1002/wcms.93)

                         Additional Contributions by
    A. E. DePrince, M. Saitow, U. Bozkaya, A. Yu. Sokolov
    -----------------------------------------------------------------------


    Psi4 started on: Tue Jul  5 16:36:49 2016

    Process ID:  28547
    PSI4DATADIR: /export131/home/mjharvey/miniconda3/share
    Memory level set to 256.000 MB

  ==> Input File <==

--------------------------------------------------------------------------
set {
	reference rhf
	basis 6-31G*
}


set_num_threads( 1 )
memory 2 gb

molecule MOL {
0 1

H	 -1.748661	 -2.220942	 -0.005015
C	 -1.343207	 -1.225221	 -0.013879
N	 -0.055091	 -1.100174	 -0.261126
C	 -2.150779	 -0.125890	 0.222726
C	 0.449969	 0.122615	 -0.277109
H	 -3.200618	 -0.238980	 0.422496
N	 -1.660212	 1.097703	 0.209594
C	 -0.371804	 1.219904	 -0.038265
C	 1.928147	 0.267347	 -0.541394
H	 0.029131	 2.217482	 -0.051283
C	 2.759223	 -0.795583	 0.184901
H	 2.092487	 0.185378	 -1.610570
H	 2.254245	 1.258325	 -0.241733
H	 3.812957	 -0.679878	 -0.048029
H	 2.451472	 -1.790241	 -0.115805
H	 2.642167	 -0.715633	 1.261105

	symmetry c1
}
ee = energy('scf')
oeprop('DIPOLE', 'QUADRUPOLE', 'MULLIKEN_CHARGES')
f=open( 'psi4out.xyz', 'w' )
f.write( "16  " )
f.write( str(ee) + "\n" )
f.write( MOL.save_string_xyz() )
f.close()
--------------------------------------------------------------------------

  Memory set to   2.000 GiB by Python script.

*** tstart() called on cx1-3-6-2.cx1.hpc.ic.ac.uk
*** at Tue Jul  5 16:36:49 2016


         ---------------------------------------------------------
                                   SCF
            by Justin Turney, Rob Parrish, and Andy Simmonett
                              RHF Reference
                        1 Threads,   2000 MiB Core
         ---------------------------------------------------------

  ==> Geometry <==

    Molecular point group: c1
    Full point group: C1

    Geometry (in Angstrom), charge = 0, multiplicity = 1:

       Center              X                  Y                   Z               Mass       
    ------------   -----------------  -----------------  -----------------  -----------------
           H         -1.745306288720    -2.142505306488     0.056702408179     1.007825032070
           C         -1.339852288720    -1.146784306488     0.047838408179    12.000000000000
           N         -0.051736288720    -1.021737306488    -0.199408591821    14.003074004780
           C         -2.147424288720    -0.047453306488     0.284443408179    12.000000000000
           C          0.453323711280     0.201051693512    -0.215391591821    12.000000000000
           H         -3.197263288720    -0.160543306488     0.484213408179     1.007825032070
           N         -1.656857288720     1.176139693512     0.271311408179    14.003074004780
           C         -0.368449288720     1.298340693512     0.023452408179    12.000000000000
           C          1.931501711280     0.345783693512    -0.479676591821    12.000000000000
           H          0.032485711280     2.295918693512     0.010434408179     1.007825032070
           C          2.762577711280    -0.717146306488     0.246618408179    12.000000000000
           H          2.095841711280     0.263814693512    -1.548852591821     1.007825032070
           H          2.257599711280     1.336761693512    -0.180015591821     1.007825032070
           H          3.816311711280    -0.601441306488     0.013688408179     1.007825032070
           H          2.454826711280    -1.711804306488    -0.054087591821     1.007825032070
           H          2.645521711280    -0.637196306488     1.322822408179     1.007825032070

  Running in c1 symmetry.

  Rotational constants: A =      0.16876  B =      0.05250  C =      0.04197 [cm^-1]
  Rotational constants: A =   5059.25722  B =   1573.84329  C =   1258.28426 [MHz]
  Nuclear repulsion =  350.241534249930567

  Charge       = 0
  Multiplicity = 1
  Electrons    = 58
  Nalpha       = 29
  Nbeta        = 29

  ==> Algorithm <==

  SCF Algorithm Type is DF.
  DIIS enabled.
  MOM disabled.
  Fractional occupation disabled.
  Guess Type is CORE.
  Energy threshold   = 1.00e-06
  Density threshold  = 1.00e-06
  Integral threshold = 0.00e+00

  ==> Primary Basis <==

  Basis Set: 6-31G*
    Number of shells: 64
    Number of basis function: 136
    Number of Cartesian functions: 136
    Spherical Harmonics?: false
    Max angular momentum: 2

  ==> Pre-Iterations <==

   -------------------------------------------------------
    Irrep   Nso     Nmo     Nalpha   Nbeta   Ndocc  Nsocc
   -------------------------------------------------------
     A        136     136       0       0       0       0
   -------------------------------------------------------
    Total     136     136      29      29      29       0
   -------------------------------------------------------

 OEINTS: Overlap, kinetic, potential, dipole, and quadrupole integrals
         stored in file 35.

  ==> Integral Setup <==

  ==> DFJK: Density-Fitted J/K Matrices <==

    J tasked:                  Yes
    K tasked:                  Yes
    wK tasked:                  No
    OpenMP threads:              1
    Integrals threads:           1
    Memory (MB):              1430
    Algorithm:                Core
    Integral Cache:           NONE
    Schwarz Cutoff:          1E-12
    Fitting Condition:       1E-12

   => Auxiliary Basis Set <=

  Basis Set: 
    Number of shells: 264
    Number of basis function: 848
    Number of Cartesian functions: 848
    Spherical Harmonics?: false
    Max angular momentum: 3

  Minimum eigenvalue in the overlap matrix is 1.1565397036E-03.
  Using Symmetric Orthogonalization.
  SCF Guess: Core (One-Electron) Hamiltonian.

  ==> Iterations <==

                           Total Energy        Delta E     RMS |[F,P]|

   @DF-RHF iter   1:  -252.52821462680339   -2.52528e+02   6.93799e-02 
   @DF-RHF iter   2:  -128.04358337484922    1.24485e+02   8.06578e-02 DIIS
   @DF-RHF iter   3:  -231.20693161436833   -1.03163e+02   6.36643e-02 DIIS
   @DF-RHF iter   4:  -281.71829385508426   -5.05114e+01   5.59312e-02 DIIS
   @DF-RHF iter   5:  -337.85906397824584   -5.61408e+01   1.37183e-02 DIIS
   @DF-RHF iter   6:  -340.13075498984989   -2.27169e+00   8.49879e-03 DIIS
   @DF-RHF iter   7:  -340.69917853505143   -5.68424e-01   2.23342e-03 DIIS
   @DF-RHF iter   8:  -340.74535111967413   -4.61726e-02   9.65222e-04 DIIS
   @DF-RHF iter   9:  -340.75622492566839   -1.08738e-02   3.14591e-04 DIIS
   @DF-RHF iter  10:  -340.75738067901392   -1.15575e-03   8.35967e-05 DIIS
   @DF-RHF iter  11:  -340.75749022198573   -1.09543e-04   4.10603e-05 DIIS
   @DF-RHF iter  12:  -340.75751256237203   -2.23404e-05   1.28392e-05 DIIS
   @DF-RHF iter  13:  -340.75751549285332   -2.93048e-06   3.82873e-06 DIIS
   @DF-RHF iter  14:  -340.75751574543204   -2.52579e-07   1.52621e-06 DIIS
   @DF-RHF iter  15:  -340.75751580643060   -6.09986e-08   5.34577e-07 DIIS

  ==> Post-Iterations <==

    Orbital Energies (a.u.)
    -----------------------

    Doubly Occupied:                                                      

       1A    -15.587017     2A    -15.582049     3A    -11.281587  
       4A    -11.276613     5A    -11.272016     6A    -11.271994  
       7A    -11.233165     8A    -11.213143     9A     -1.313564  
      10A     -1.222310    11A     -1.083836    12A     -1.012410  
      13A     -0.907592    14A     -0.890126    15A     -0.825680  
      16A     -0.717671    17A     -0.707711    18A     -0.658576  
      19A     -0.621553    20A     -0.602207    21A     -0.571727  
      22A     -0.558463    23A     -0.520311    24A     -0.503558  
      25A     -0.501265    26A     -0.484677    27A     -0.429261  
      28A     -0.395009    29A     -0.344906  

    Virtual:                                                              

      30A      0.103861    31A      0.134389    32A      0.247140  
      33A      0.271466    34A      0.277629    35A      0.300869  
      36A      0.316729    37A      0.324923    38A      0.328016  
      39A      0.336142    40A      0.364644    41A      0.380422  
      42A      0.411884    43A      0.433801    44A      0.504553  
      45A      0.512251    46A      0.552910    47A      0.630755  
      48A      0.668994    49A      0.719963    50A      0.727054  
      51A      0.743687    52A      0.750459    53A      0.763492  
      54A      0.790506    55A      0.801954    56A      0.827328  
      57A      0.843211    58A      0.862032    59A      0.883661  
      60A      0.918777    61A      0.949343    62A      0.992393  
      63A      1.003239    64A      1.029947    65A      1.053276  
      66A      1.079451    67A      1.082946    68A      1.090982  
      69A      1.107930    70A      1.135856    71A      1.138446  
      72A      1.158310    73A      1.171171    74A      1.191969  
      75A      1.212534    76A      1.232773    77A      1.240591  
      78A      1.260707    79A      1.274772    80A      1.330391  
      81A      1.374730    82A      1.389068    83A      1.479800  
      84A      1.519807    85A      1.555246    86A      1.622264  
      87A      1.642622    88A      1.710664    89A      1.754294  
      90A      1.773438    91A      1.787630    92A      1.796027  
      93A      1.833929    94A      1.945849    95A      1.980577  
      96A      2.056865    97A      2.112896    98A      2.137722  
      99A      2.146146   100A      2.187482   101A      2.243282  
     102A      2.288053   103A      2.299147   104A      2.328708  
     105A      2.428334   106A      2.488541   107A      2.494848  
     108A      2.560571   109A      2.574539   110A      2.596755  
     111A      2.616691   112A      2.638912   113A      2.686608  
     114A      2.700254   115A      2.717931   116A      2.730900  
     117A      2.808303   118A      2.878765   119A      2.926551  
     120A      2.960594   121A      3.020924   122A      3.103599  
     123A      3.140168   124A      3.175293   125A      3.220659  
     126A      3.269294   127A      3.504562   128A      3.842553  
     129A      4.367730   130A      4.501988   131A      4.557939  
     132A      4.619432   133A      4.711429   134A      4.793645  
     135A      4.870248   136A      4.989852  

    Final Occupation by Irrep:
              A 
    DOCC [    29 ]

  Energy converged.

  @DF-RHF Final Energy:  -340.75751580643060

   => Energetics <=

    Nuclear Repulsion Energy =            350.2415342499305666
    One-Electron Energy =               -1154.8182529498221811
    Two-Electron Energy =                 463.8192028934612381
    DFT Exchange-Correlation Energy =       0.0000000000000000
    Empirical Dispersion Energy =           0.0000000000000000
    PCM Polarization Energy =               0.0000000000000000
    EFP Energy =                            0.0000000000000000
    Total Energy =                       -340.7575158064304333

    Alert: EFP and PCM quantities not currently incorporated into SCF psivars.

Properties will be evaluated at   0.000000,   0.000000,   0.000000 Bohr
  ==> Properties <==


Properties computed using the SCF density matrix

  Nuclear Dipole Moment: (a.u.)
     X:     7.8422      Y:    -1.2726      Z:     0.0981

  Electronic Dipole Moment: (a.u.)
     X:    -7.6589      Y:     1.1896      Z:    -0.1470

  Dipole Moment: (a.u.)
     X:     0.1833      Y:    -0.0830      Z:    -0.0489     Total:     0.2071

  Dipole Moment: (Debye)
     X:     0.4659      Y:    -0.2109      Z:    -0.1243     Total:     0.5263


  Saving occupied orbitals to File 180.

*** tstop() called on cx1-3-6-2.cx1.hpc.ic.ac.uk at Tue Jul  5 16:37:02 2016
Module time:
	user time   =      12.83 seconds =       0.21 minutes
	system time =       0.06 seconds =       0.00 minutes
	total time  =         13 seconds =       0.22 minutes
Total time:
	user time   =      12.83 seconds =       0.21 minutes
	system time =       0.06 seconds =       0.00 minutes
	total time  =         13 seconds =       0.22 minutes


Properties will be evaluated at   0.000000,   0.000000,   0.000000 Bohr

Properties computed using the  density matrix

  Nuclear Dipole Moment: (a.u.)
     X:     7.8422      Y:    -1.2726      Z:     0.0981

  Electronic Dipole Moment: (a.u.)
     X:    -7.6589      Y:     1.1896      Z:    -0.1470

  Dipole Moment: (a.u.)
     X:     0.1833      Y:    -0.0830      Z:    -0.0489     Total:     0.2071

  Dipole Moment: (Debye)
     X:     0.4659      Y:    -0.2109      Z:    -0.1243     Total:     0.5263

  Quadrupole Moment: (Debye Ang)
    XX:   -44.9360     YY:   -49.0846     ZZ:   -48.8987
    XY:     6.6774     XZ:    -0.5512     YZ:    -1.1765

  Traceless Quadrupole Moment: (Debye Ang)
    XX:     2.7038     YY:    -1.4449     ZZ:    -1.2590
    XY:     6.6774     XZ:    -0.5512     YZ:    -1.1765

  Mulliken Charges: (a.u.)
   Center  Symbol    Alpha    Beta     Spin     Total
       1     H     0.39392  0.39392  0.00000  0.21216
       2     C     2.98858  2.98858  0.00000  0.02283
       3     N     3.75620  3.75620  0.00000 -0.51240
       4     C     2.99862  2.99862  0.00000  0.00276
       5     C     2.87144  2.87144  0.00000  0.25713
       6     H     0.39430  0.39430  0.00000  0.21141
       7     N     3.72863  3.72863  0.00000 -0.45727
       8     C     3.00071  3.00071  0.00000 -0.00141
       9     C     3.17076  3.17076  0.00000 -0.34151
      10     H     0.39491  0.39491  0.00000  0.21017
      11     C     3.24143  3.24143  0.00000 -0.48286
      12     H     0.40595  0.40595  0.00000  0.18810
      13     H     0.41384  0.41384  0.00000  0.17232
      14     H     0.41916  0.41916  0.00000  0.16167
      15     H     0.40296  0.40296  0.00000  0.19407
      16     H     0.41859  0.41859  0.00000  0.16282

   Total alpha = 29.00000, Total beta = 29.00000, Total charge = -0.00000


*** PSI4 exiting successfully. Buy a developer a beer!
