    -----------------------------------------------------------------------
          Psi4: An Open-Source Ab Initio Electronic Structure Package
                              Psi4 (no tag) Driver

                          Git: Rev {detached?}  

    J. M. Turney, A. C. Simmonett, R. M. Parrish, E. G. Hohenstein,
    F. A. Evangelista, J. T. Fermann, B. J. Mintz, L. A. Burns, J. J. Wilke,
    M. L. Abrams, N. J. Russ, M. L. Leininger, C. L. Janssen, E. T. Seidl,
    W. D. Allen, H. F. Schaefer, R. A. King, E. F. Valeev, C. D. Sherrill,
    and T. D. Crawford, WIREs Comput. Mol. Sci. 2, 556-565 (2012)
    (doi: 10.1002/wcms.93)

                         Additional Contributions by
    A. E. DePrince, M. Saitow, U. Bozkaya, A. Yu. Sokolov
    -----------------------------------------------------------------------


    Psi4 started on: Tue Jul  5 16:25:37 2016

    Process ID:  19906
    PSI4DATADIR: /export131/home/mjharvey/miniconda3/share
    Memory level set to 256.000 MB

  ==> Input File <==

--------------------------------------------------------------------------
set {
	reference rhf
	basis 6-31G*
}


set_num_threads( 1 )
memory 2 gb

molecule MOL {
0 1

H	 -0.944757	 -0.000069	 1.678017
O	 -0.042387	 -0.000390	 1.388199
C	 -0.001487	 0.000018	 -0.026623
C	 0.012656	 -1.441522	 -0.538877
C	 -1.211053	 0.760506	 -0.573663
C	 1.295650	 0.715149	 -0.387795
H	 0.086164	 -1.476570	 -1.621127
H	 -0.898397	 -1.962119	 -0.252755
H	 0.853946	 -1.981029	 -0.117948
H	 -1.188561	 0.813367	 -1.657540
H	 -2.138123	 0.269786	 -0.286144
H	 -1.229214	 1.770355	 -0.179009
H	 1.423559	 0.768609	 -1.464143
H	 2.143819	 0.189170	 0.035811
H	 1.290916	 1.723427	 0.010635

	symmetry c1
}
ee = energy('scf')
oeprop('DIPOLE', 'QUADRUPOLE', 'MULLIKEN_CHARGES')
f=open( 'psi4out.xyz', 'w' )
f.write( "15  " )
f.write( str(ee) + "\n" )
f.write( MOL.save_string_xyz() )
f.close()
--------------------------------------------------------------------------

  Memory set to   2.000 GiB by Python script.

*** tstart() called on cx1-3-15-2.cx1.hpc.ic.ac.uk
*** at Tue Jul  5 16:25:38 2016


         ---------------------------------------------------------
                                   SCF
            by Justin Turney, Rob Parrish, and Andy Simmonett
                              RHF Reference
                        1 Threads,   2000 MiB Core
         ---------------------------------------------------------

  ==> Geometry <==

    Molecular point group: c1
    Full point group: C1

    Geometry (in Angstrom), charge = 0, multiplicity = 1:

       Center              X                  Y                   Z               Mass       
    ------------   -----------------  -----------------  -----------------  -----------------
           H         -0.942946188541    -0.007080989986     1.678067406677     1.007825032070
           O         -0.040576188541    -0.007401989986     1.388249406677    15.994914619560
           C          0.000323811459    -0.006993989986    -0.026572593323    12.000000000000
           C          0.014466811459    -1.448533989986    -0.538826593323    12.000000000000
           C         -1.209242188541     0.753494010014    -0.573612593323    12.000000000000
           C          1.297460811459     0.708137010014    -0.387744593323    12.000000000000
           H          0.087974811459    -1.483581989986    -1.621076593323     1.007825032070
           H         -0.896586188541    -1.969130989986    -0.252704593323     1.007825032070
           H          0.855756811459    -1.988040989986    -0.117897593323     1.007825032070
           H         -1.186750188541     0.806355010014    -1.657489593323     1.007825032070
           H         -2.136312188541     0.262774010014    -0.286093593323     1.007825032070
           H         -1.227403188541     1.763343010014    -0.178958593323     1.007825032070
           H          1.425369811459     0.761597010014    -1.464092593323     1.007825032070
           H          2.145629811459     0.182158010014     0.035861406677     1.007825032070
           H          1.292726811459     1.716415010014     0.010685406677     1.007825032070

  Running in c1 symmetry.

  Rotational constants: A =      0.15877  B =      0.15809  C =      0.15057 [cm^-1]
  Rotational constants: A =   4759.80502  B =   4739.41671  C =   4513.91226 [MHz]
  Nuclear repulsion =  200.381647404102836

  Charge       = 0
  Multiplicity = 1
  Electrons    = 42
  Nalpha       = 21
  Nbeta        = 21

  ==> Algorithm <==

  SCF Algorithm Type is DF.
  DIIS enabled.
  MOM disabled.
  Fractional occupation disabled.
  Guess Type is CORE.
  Energy threshold   = 1.00e-06
  Density threshold  = 1.00e-06
  Integral threshold = 0.00e+00

  ==> Primary Basis <==

  Basis Set: 6-31G*
    Number of shells: 50
    Number of basis function: 95
    Number of Cartesian functions: 95
    Spherical Harmonics?: false
    Max angular momentum: 2

  ==> Pre-Iterations <==

   -------------------------------------------------------
    Irrep   Nso     Nmo     Nalpha   Nbeta   Ndocc  Nsocc
   -------------------------------------------------------
     A         95      95       0       0       0       0
   -------------------------------------------------------
    Total      95      95      21      21      21       0
   -------------------------------------------------------

 OEINTS: Overlap, kinetic, potential, dipole, and quadrupole integrals
         stored in file 35.

  ==> Integral Setup <==

  ==> DFJK: Density-Fitted J/K Matrices <==

    J tasked:                  Yes
    K tasked:                  Yes
    wK tasked:                  No
    OpenMP threads:              1
    Integrals threads:           1
    Memory (MB):              1430
    Algorithm:                Core
    Integral Cache:           NONE
    Schwarz Cutoff:          1E-12
    Fitting Condition:       1E-12

   => Auxiliary Basis Set <=

  Basis Set: 
    Number of shells: 210
    Number of basis function: 655
    Number of Cartesian functions: 655
    Spherical Harmonics?: false
    Max angular momentum: 3

  Minimum eigenvalue in the overlap matrix is 3.2973950663E-03.
  Using Symmetric Orthogonalization.
  SCF Guess: Core (One-Electron) Hamiltonian.

  ==> Iterations <==

                           Total Energy        Delta E     RMS |[F,P]|

   @DF-RHF iter   1:  -175.18903417617955   -1.75189e+02   1.02672e-01 
   @DF-RHF iter   2:  -187.68399046804043   -1.24950e+01   4.68427e-02 DIIS
   @DF-RHF iter   3:  -189.50725096240834   -1.82326e+00   7.99156e-02 DIIS
   @DF-RHF iter   4:  -217.04885328064731   -2.75416e+01   4.87941e-02 DIIS
   @DF-RHF iter   5:  -227.10011549385817   -1.00513e+01   3.32327e-02 DIIS
   @DF-RHF iter   6:  -228.92846452084186   -1.82835e+00   2.61661e-02 DIIS
   @DF-RHF iter   7:  -231.19778617792801   -2.26932e+00   1.39621e-02 DIIS
   @DF-RHF iter   8:  -232.04604962395851   -8.48263e-01   4.37518e-03 DIIS
   @DF-RHF iter   9:  -232.13313375141237   -8.70841e-02   1.93739e-03 DIIS
   @DF-RHF iter  10:  -232.15110750682291   -1.79738e-02   4.30297e-04 DIIS
   @DF-RHF iter  11:  -232.15197554760962   -8.68041e-04   9.89702e-05 DIIS
   @DF-RHF iter  12:  -232.15207584067949   -1.00293e-04   3.40239e-05 DIIS
   @DF-RHF iter  13:  -232.15208371372395   -7.87304e-06   6.77622e-06 DIIS
   @DF-RHF iter  14:  -232.15208410038102   -3.86657e-07   1.45028e-06 DIIS
   @DF-RHF iter  15:  -232.15208411912002   -1.87390e-08   4.12911e-07 DIIS

  ==> Post-Iterations <==

    Orbital Energies (a.u.)
    -----------------------

    Doubly Occupied:                                                      

       1A    -20.548317     2A    -11.281674     3A    -11.216387  
       4A    -11.206877     5A    -11.204199     6A     -1.360463  
       7A     -1.063176     8A     -0.944528     9A     -0.936723  
      10A     -0.775386    11A     -0.669911    12A     -0.622736  
      13A     -0.621532    14A     -0.575939    15A     -0.556071  
      16A     -0.531645    17A     -0.516985    18A     -0.509488  
      19A     -0.502086    20A     -0.457065    21A     -0.424129  

    Virtual:                                                              

      22A      0.208463    23A      0.263870    24A      0.282135  
      25A      0.304135    26A      0.305758    27A      0.315160  
      28A      0.318761    29A      0.353067    30A      0.361563  
      31A      0.381155    32A      0.388067    33A      0.423874  
      34A      0.433417    35A      0.458929    36A      0.707443  
      37A      0.709998    38A      0.769447    39A      0.787972  
      40A      0.796812    41A      0.872030    42A      0.908834  
      43A      0.915781    44A      0.928545    45A      0.998935  
      46A      1.004420    47A      1.093582    48A      1.122807  
      49A      1.145772    50A      1.162661    51A      1.180806  
      52A      1.182864    53A      1.195249    54A      1.215320  
      55A      1.218505    56A      1.225808    57A      1.257495  
      58A      1.266136    59A      1.315720    60A      1.343601  
      61A      1.473702    62A      1.626383    63A      1.661718  
      64A      1.675794    65A      1.712328    66A      1.807208  
      67A      2.008337    68A      2.023439    69A      2.046369  
      70A      2.103135    71A      2.147786    72A      2.180648  
      73A      2.217405    74A      2.259066    75A      2.409623  
      76A      2.424638    77A      2.475679    78A      2.551537  
      79A      2.568909    80A      2.574295    81A      2.601924  
      82A      2.620243    83A      2.629906    84A      2.728074  
      85A      2.818889    86A      2.960670    87A      3.003632  
      88A      3.072750    89A      3.106675    90A      3.273838  
      91A      4.226165    92A      4.622643    93A      4.736457  
      94A      4.750734    95A      5.065619  

    Final Occupation by Irrep:
              A 
    DOCC [    21 ]

  Energy converged.

  @DF-RHF Final Energy:  -232.15208411912002

   => Energetics <=

    Nuclear Repulsion Energy =            200.3816474041028357
    One-Electron Energy =                -712.0166658896283707
    Two-Electron Energy =                 279.4829343664052885
    DFT Exchange-Correlation Energy =       0.0000000000000000
    Empirical Dispersion Energy =           0.0000000000000000
    PCM Polarization Energy =               0.0000000000000000
    EFP Energy =                            0.0000000000000000
    Total Energy =                       -232.1520841191202180

    Alert: EFP and PCM quantities not currently incorporated into SCF psivars.

Properties will be evaluated at   0.000000,   0.000000,   0.000000 Bohr
  ==> Properties <==


Properties computed using the SCF density matrix

  Nuclear Dipole Moment: (a.u.)
     X:    -0.5463      Y:     0.0420      Z:    -3.6061

  Electronic Dipole Moment: (a.u.)
     X:     0.0021      Y:    -0.0104      Z:     3.2027

  Dipole Moment: (a.u.)
     X:    -0.5442      Y:     0.0315      Z:    -0.4034     Total:     0.6781

  Dipole Moment: (Debye)
     X:    -1.3831      Y:     0.0801      Z:    -1.0253     Total:     1.7236


  Saving occupied orbitals to File 180.

*** tstop() called on cx1-3-15-2.cx1.hpc.ic.ac.uk at Tue Jul  5 16:25:44 2016
Module time:
	user time   =       5.91 seconds =       0.10 minutes
	system time =       0.04 seconds =       0.00 minutes
	total time  =          6 seconds =       0.10 minutes
Total time:
	user time   =       5.91 seconds =       0.10 minutes
	system time =       0.04 seconds =       0.00 minutes
	total time  =          6 seconds =       0.10 minutes


Properties will be evaluated at   0.000000,   0.000000,   0.000000 Bohr

Properties computed using the  density matrix

  Nuclear Dipole Moment: (a.u.)
     X:    -0.5463      Y:     0.0420      Z:    -3.6061

  Electronic Dipole Moment: (a.u.)
     X:     0.0021      Y:    -0.0104      Z:     3.2027

  Dipole Moment: (a.u.)
     X:    -0.5442      Y:     0.0315      Z:    -0.4034     Total:     0.6781

  Dipole Moment: (Debye)
     X:    -1.3831      Y:     0.0801      Z:    -1.0253     Total:     1.7236

  Quadrupole Moment: (Debye Ang)
    XX:   -31.5832     YY:   -33.6249     ZZ:   -34.5557
    XY:    -0.0833     XZ:    -2.8290     YZ:    -0.0552

  Traceless Quadrupole Moment: (Debye Ang)
    XX:     1.6714     YY:    -0.3703     ZZ:    -1.3011
    XY:    -0.0833     XZ:    -2.8290     YZ:    -0.0552

  Mulliken Charges: (a.u.)
   Center  Symbol    Alpha    Beta     Spin     Total
       1     H     0.28194  0.28194  0.00000  0.43612
       2     O     4.37878  4.37878  0.00000 -0.75757
       3     C     2.84913  2.84913  0.00000  0.30173
       4     C     3.23455  3.23455  0.00000 -0.46910
       5     C     3.25423  3.25423  0.00000 -0.50846
       6     C     3.23222  3.23222  0.00000 -0.46443
       7     H     0.42421  0.42421  0.00000  0.15158
       8     H     0.42450  0.42450  0.00000  0.15099
       9     H     0.41284  0.41284  0.00000  0.17432
      10     H     0.41637  0.41637  0.00000  0.16726
      11     H     0.42428  0.42428  0.00000  0.15143
      12     H     0.41300  0.41300  0.00000  0.17400
      13     H     0.42530  0.42530  0.00000  0.14939
      14     H     0.41317  0.41317  0.00000  0.17366
      15     H     0.41547  0.41547  0.00000  0.16906

   Total alpha = 21.00000, Total beta = 21.00000, Total charge = -0.00000


*** PSI4 exiting successfully. Buy a developer a beer!
