    -----------------------------------------------------------------------
          Psi4: An Open-Source Ab Initio Electronic Structure Package
                              Psi4 (no tag) Driver

                          Git: Rev {detached?}  

    J. M. Turney, A. C. Simmonett, R. M. Parrish, E. G. Hohenstein,
    F. A. Evangelista, J. T. Fermann, B. J. Mintz, L. A. Burns, J. J. Wilke,
    M. L. Abrams, N. J. Russ, M. L. Leininger, C. L. Janssen, E. T. Seidl,
    W. D. Allen, H. F. Schaefer, R. A. King, E. F. Valeev, C. D. Sherrill,
    and T. D. Crawford, WIREs Comput. Mol. Sci. 2, 556-565 (2012)
    (doi: 10.1002/wcms.93)

                         Additional Contributions by
    A. E. DePrince, M. Saitow, U. Bozkaya, A. Yu. Sokolov
    -----------------------------------------------------------------------


    Psi4 started on: Tue Jul  5 16:31:51 2016

    Process ID:  16764
    PSI4DATADIR: /export131/home/mjharvey/miniconda3/share
    Memory level set to 256.000 MB

  ==> Input File <==

--------------------------------------------------------------------------
set {
	reference rhf
	basis 6-31G*
}


set_num_threads( 1 )
memory 2 gb

molecule MOL {
0 1

O	 -0.682937	 1.318834	 -0.186099
C	 -0.860635	 0.152188	 -0.042321
C	 -2.173363	 -0.477127	 0.338347
O	 0.083258	 -0.765189	 -0.202595
H	 -2.477673	 -1.180929	 -0.427595
H	 -2.923125	 0.290956	 0.455536
H	 -2.058825	 -1.029004	 1.264191
C	 1.391937	 -0.334737	 -0.569838
C	 2.340436	 -0.365106	 0.614255
H	 1.332792	 0.653527	 -0.999928
H	 1.702810	 -1.033530	 -1.333085
H	 3.343135	 -0.106182	 0.288244
H	 2.035004	 0.345845	 1.371637
H	 2.370352	 -1.356271	 1.053700

	symmetry c1
}
set optking {
	frozen_dihedral = ("
		8 4 2 1
	")
}

ee = energy('scf')
oeprop('DIPOLE', 'QUADRUPOLE', 'MULLIKEN_CHARGES')
f=open( 'psi4out.xyz', 'w' )
f.write( "14  " )
f.write( str(ee) + "\n" )
f.write( MOL.save_string_xyz() )
f.close()
--------------------------------------------------------------------------

  Memory set to   2.000 GiB by Python script.

*** tstart() called on cx1-1-2-4.cx1.hpc.ic.ac.uk
*** at Tue Jul  5 16:31:51 2016


         ---------------------------------------------------------
                                   SCF
            by Justin Turney, Rob Parrish, and Andy Simmonett
                              RHF Reference
                        1 Threads,   2000 MiB Core
         ---------------------------------------------------------

  ==> Geometry <==

    Molecular point group: c1
    Full point group: C1

    Geometry (in Angstrom), charge = 0, multiplicity = 1:

       Center              X                  Y                   Z               Mass       
    ------------   -----------------  -----------------  -----------------  -----------------
           O         -0.707231272089     1.397016903306    -0.181033581424    15.994914619560
           C         -0.884929272089     0.230370903306    -0.037255581424    12.000000000000
           C         -2.197657272089    -0.398944096694     0.343412418576    12.000000000000
           O          0.058963727911    -0.687006096694    -0.197529581424    15.994914619560
           H         -2.501967272089    -1.102746096694    -0.422529581424     1.007825032070
           H         -2.947419272089     0.369138903306     0.460601418576     1.007825032070
           H         -2.083119272089    -0.950821096694     1.269256418576     1.007825032070
           C          1.367642727911    -0.256554096694    -0.564772581424    12.000000000000
           C          2.316141727911    -0.286923096694     0.619320418576    12.000000000000
           H          1.308497727911     0.731709903306    -0.994862581424     1.007825032070
           H          1.678515727911    -0.955347096694    -1.328019581424     1.007825032070
           H          3.318840727911    -0.027999096694     0.293309418576     1.007825032070
           H          2.010709727911     0.424027903306     1.376702418576     1.007825032070
           H          2.346057727911    -1.278088096694     1.058765418576     1.007825032070

  Running in c1 symmetry.

  Rotational constants: A =      0.25882  B =      0.07409  C =      0.06575 [cm^-1]
  Rotational constants: A =   7759.11107  B =   2221.07277  C =   1971.06672 [MHz]
  Nuclear repulsion =  247.322232316644687

  Charge       = 0
  Multiplicity = 1
  Electrons    = 48
  Nalpha       = 24
  Nbeta        = 24

  ==> Algorithm <==

  SCF Algorithm Type is DF.
  DIIS enabled.
  MOM disabled.
  Fractional occupation disabled.
  Guess Type is CORE.
  Energy threshold   = 1.00e-06
  Density threshold  = 1.00e-06
  Integral threshold = 0.00e+00

  ==> Primary Basis <==

  Basis Set: 6-31G*
    Number of shells: 52
    Number of basis function: 106
    Number of Cartesian functions: 106
    Spherical Harmonics?: false
    Max angular momentum: 2

  ==> Pre-Iterations <==

   -------------------------------------------------------
    Irrep   Nso     Nmo     Nalpha   Nbeta   Ndocc  Nsocc
   -------------------------------------------------------
     A        106     106       0       0       0       0
   -------------------------------------------------------
    Total     106     106      24      24      24       0
   -------------------------------------------------------

 OEINTS: Overlap, kinetic, potential, dipole, and quadrupole integrals
         stored in file 35.

  ==> Integral Setup <==

  ==> DFJK: Density-Fitted J/K Matrices <==

    J tasked:                  Yes
    K tasked:                  Yes
    wK tasked:                  No
    OpenMP threads:              1
    Integrals threads:           1
    Memory (MB):              1430
    Algorithm:                Core
    Integral Cache:           NONE
    Schwarz Cutoff:          1E-12
    Fitting Condition:       1E-12

   => Auxiliary Basis Set <=

  Basis Set: 
    Number of shells: 216
    Number of basis function: 686
    Number of Cartesian functions: 686
    Spherical Harmonics?: false
    Max angular momentum: 3

  Minimum eigenvalue in the overlap matrix is 3.9208920416E-03.
  Using Symmetric Orthogonalization.
  SCF Guess: Core (One-Electron) Hamiltonian.

  ==> Iterations <==

                           Total Energy        Delta E     RMS |[F,P]|

   @DF-RHF iter   1:  -234.61057395032597   -2.34611e+02   8.32716e-02 
   @DF-RHF iter   2:  -204.24078821712473    3.03698e+01   6.25465e-02 DIIS
   @DF-RHF iter   3:  -271.93936014335759   -6.76986e+01   5.55183e-02 DIIS
   @DF-RHF iter   4:  -291.66830400979347   -1.97289e+01   3.69649e-02 DIIS
   @DF-RHF iter   5:  -305.00853822454553   -1.33402e+01   1.19662e-02 DIIS
   @DF-RHF iter   6:  -305.81045031395479   -8.01912e-01   3.31451e-03 DIIS
   @DF-RHF iter   7:  -305.86756450662790   -5.71142e-02   1.01209e-03 DIIS
   @DF-RHF iter   8:  -305.87293241693624   -5.36791e-03   5.18087e-04 DIIS
   @DF-RHF iter   9:  -305.87408422024691   -1.15180e-03   2.37201e-04 DIIS
   @DF-RHF iter  10:  -305.87449599418414   -4.11774e-04   9.10881e-05 DIIS
   @DF-RHF iter  11:  -305.87456430683073   -6.83126e-05   2.66623e-05 DIIS
   @DF-RHF iter  12:  -305.87456895127229   -4.64444e-06   9.19935e-06 DIIS
   @DF-RHF iter  13:  -305.87456970179392   -7.50522e-07   1.94558e-06 DIIS
   @DF-RHF iter  14:  -305.87456974347083   -4.16769e-08   3.81724e-07 DIIS

  ==> Post-Iterations <==

    Orbital Energies (a.u.)
    -----------------------

    Doubly Occupied:                                                      

       1A    -20.601922     2A    -20.544028     3A    -11.376171  
       4A    -11.283070     5A    -11.233473     6A    -11.221259  
       7A     -1.467522     8A     -1.362668     9A     -1.055695  
      10A     -0.999726    11A     -0.880025    12A     -0.769555  
      13A     -0.699053    14A     -0.681790    15A     -0.657257  
      16A     -0.611110    17A     -0.584629    18A     -0.569222  
      19A     -0.561429    20A     -0.528824    21A     -0.518242  
      22A     -0.494357    23A     -0.448809    24A     -0.439897  

    Virtual:                                                              

      25A      0.199117    26A      0.246079    27A      0.259887  
      28A      0.294345    29A      0.301995    30A      0.308737  
      31A      0.320847    32A      0.331783    33A      0.340336  
      34A      0.360658    35A      0.401637    36A      0.418475  
      37A      0.505598    38A      0.546805    39A      0.689808  
      40A      0.722340    41A      0.743398    42A      0.766330  
      43A      0.776889    44A      0.797605    45A      0.836347  
      46A      0.866667    47A      0.885741    48A      0.941511  
      49A      0.965636    50A      1.005115    51A      1.059000  
      52A      1.092693    53A      1.126303    54A      1.139778  
      55A      1.160476    56A      1.171006    57A      1.196361  
      58A      1.203038    59A      1.209586    60A      1.240252  
      61A      1.249964    62A      1.286201    63A      1.341658  
      64A      1.401109    65A      1.407950    66A      1.436133  
      67A      1.625241    68A      1.653022    69A      1.715807  
      70A      1.766544    71A      1.820001    72A      1.847510  
      73A      1.922743    74A      1.976845    75A      2.043462  
      76A      2.078219    77A      2.100367    78A      2.133264  
      79A      2.207811    80A      2.240996    81A      2.274673  
      82A      2.289992    83A      2.395520    84A      2.410592  
      85A      2.484966    86A      2.523147    87A      2.555295  
      88A      2.566595    89A      2.660133    90A      2.683048  
      91A      2.719464    92A      2.756571    93A      2.827179  
      94A      2.940876    95A      2.991774    96A      3.087379  
      97A      3.157947    98A      3.350577    99A      3.409270  
     100A      3.549527   101A      4.409646   102A      4.522313  
     103A      4.575576   104A      4.670569   105A      4.824960  
     106A      4.912555  

    Final Occupation by Irrep:
              A 
    DOCC [    24 ]

  Energy converged.

  @DF-RHF Final Energy:  -305.87456974347083

   => Energetics <=

    Nuclear Repulsion Energy =            247.3222323166446870
    One-Electron Energy =                -907.2141335856395017
    Two-Electron Energy =                 354.0173315255241846
    DFT Exchange-Correlation Energy =       0.0000000000000000
    Empirical Dispersion Energy =           0.0000000000000000
    PCM Polarization Energy =               0.0000000000000000
    EFP Energy =                            0.0000000000000000
    Total Energy =                       -305.8745697434706585

    Alert: EFP and PCM quantities not currently incorporated into SCF psivars.

Properties will be evaluated at   0.000000,   0.000000,   0.000000 Bohr
  ==> Properties <==


Properties computed using the SCF density matrix

  Nuclear Dipole Moment: (a.u.)
     X:     2.9313      Y:    -2.6122      Z:     1.6043

  Electronic Dipole Moment: (a.u.)
     X:    -2.7557      Y:     1.8484      Z:    -1.5443

  Dipole Moment: (a.u.)
     X:     0.1756      Y:    -0.7638      Z:     0.0600     Total:     0.7860

  Dipole Moment: (Debye)
     X:     0.4463      Y:    -1.9414      Z:     0.1524     Total:     1.9979


  Saving occupied orbitals to File 180.

*** tstop() called on cx1-1-2-4.cx1.hpc.ic.ac.uk at Tue Jul  5 16:31:57 2016
Module time:
	user time   =       5.53 seconds =       0.09 minutes
	system time =       0.03 seconds =       0.00 minutes
	total time  =          6 seconds =       0.10 minutes
Total time:
	user time   =       5.53 seconds =       0.09 minutes
	system time =       0.03 seconds =       0.00 minutes
	total time  =          6 seconds =       0.10 minutes


Properties will be evaluated at   0.000000,   0.000000,   0.000000 Bohr

Properties computed using the  density matrix

  Nuclear Dipole Moment: (a.u.)
     X:     2.9313      Y:    -2.6122      Z:     1.6043

  Electronic Dipole Moment: (a.u.)
     X:    -2.7557      Y:     1.8484      Z:    -1.5443

  Dipole Moment: (a.u.)
     X:     0.1756      Y:    -0.7638      Z:     0.0600     Total:     0.7860

  Dipole Moment: (Debye)
     X:     0.4463      Y:    -1.9414      Z:     0.1524     Total:     1.9979

  Quadrupole Moment: (Debye Ang)
    XX:   -30.8965     YY:   -42.0620     ZZ:   -35.3708
    XY:     2.0913     XZ:    -1.4165     YZ:     0.5130

  Traceless Quadrupole Moment: (Debye Ang)
    XX:     5.2132     YY:    -5.9522     ZZ:     0.7389
    XY:     2.0913     XZ:    -1.4165     YZ:     0.5130

  Mulliken Charges: (a.u.)
   Center  Symbol    Alpha    Beta     Spin     Total
       1     O     4.28423  4.28423  0.00000 -0.56845
       2     C     2.62010  2.62010  0.00000  0.75979
       3     C     3.28219  3.28219  0.00000 -0.56439
       4     O     4.30705  4.30705  0.00000 -0.61410
       5     H     0.40018  0.40018  0.00000  0.19964
       6     H     0.39694  0.39694  0.00000  0.20611
       7     H     0.40043  0.40043  0.00000  0.19915
       8     C     3.01189  3.01189  0.00000 -0.02377
       9     C     3.24972  3.24972  0.00000 -0.49943
      10     H     0.39528  0.39528  0.00000  0.20945
      11     H     0.41228  0.41228  0.00000  0.17543
      12     H     0.41695  0.41695  0.00000  0.16610
      13     H     0.40966  0.40966  0.00000  0.18068
      14     H     0.41311  0.41311  0.00000  0.17379

   Total alpha = 24.00000, Total beta = 24.00000, Total charge =  0.00000


*** PSI4 exiting successfully. Buy a developer a beer!
