    -----------------------------------------------------------------------
          Psi4: An Open-Source Ab Initio Electronic Structure Package
                              Psi4 (no tag) Driver

                          Git: Rev {detached?}  

    J. M. Turney, A. C. Simmonett, R. M. Parrish, E. G. Hohenstein,
    F. A. Evangelista, J. T. Fermann, B. J. Mintz, L. A. Burns, J. J. Wilke,
    M. L. Abrams, N. J. Russ, M. L. Leininger, C. L. Janssen, E. T. Seidl,
    W. D. Allen, H. F. Schaefer, R. A. King, E. F. Valeev, C. D. Sherrill,
    and T. D. Crawford, WIREs Comput. Mol. Sci. 2, 556-565 (2012)
    (doi: 10.1002/wcms.93)

                         Additional Contributions by
    A. E. DePrince, M. Saitow, U. Bozkaya, A. Yu. Sokolov
    -----------------------------------------------------------------------


    Psi4 started on: Tue Jul  5 16:41:27 2016

    Process ID:  29117
    PSI4DATADIR: /export131/home/mjharvey/miniconda3/share
    Memory level set to 256.000 MB

  ==> Input File <==

--------------------------------------------------------------------------
set {
	reference rhf
	basis 6-31G*
}


set_num_threads( 1 )
memory 2 gb

molecule MOL {
0 1

H	 0.075655	 1.724700	 0.560390
N	 -0.456516	 0.876527	 0.541107
C	 0.411825	 -0.271767	 0.350028
H	 -1.096509	 0.942907	 -0.226429
C	 0.971803	 -0.268062	 -1.056935
H	 1.245876	 -0.313000	 1.051925
H	 -0.173567	 -1.175924	 0.486406
O	 -0.088814	 -0.446451	 -1.951562
H	 1.476952	 0.676258	 -1.258733
H	 1.695616	 -1.072886	 -1.164576
C	 -0.225474	 -1.747117	 -2.428177
H	 -0.228948	 -2.410762	 -1.574210
H	 -1.157613	 -1.874445	 -2.975796
H	 0.599534	 -2.019229	 -3.083254

	symmetry c1
}
set optking {
	frozen_dihedral = ("
		8 5 3 6,
		6 3 2 4,
		5 8 11 13
	")
}

ee = energy('scf')
oeprop('DIPOLE', 'QUADRUPOLE', 'MULLIKEN_CHARGES')
f=open( 'psi4out.xyz', 'w' )
f.write( "14  " )
f.write( str(ee) + "\n" )
f.write( MOL.save_string_xyz() )
f.close()
--------------------------------------------------------------------------

  Memory set to   2.000 GiB by Python script.

*** tstart() called on cx1-3-6-4.cx1.hpc.ic.ac.uk
*** at Tue Jul  5 16:41:27 2016


         ---------------------------------------------------------
                                   SCF
            by Justin Turney, Rob Parrish, and Andy Simmonett
                              RHF Reference
                        1 Threads,   2000 MiB Core
         ---------------------------------------------------------

  ==> Geometry <==

    Molecular point group: c1
    Full point group: C1

    Geometry (in Angstrom), charge = 0, multiplicity = 1:

       Center              X                  Y                   Z               Mass       
    ------------   -----------------  -----------------  -----------------  -----------------
           H         -0.038117403695     2.096038856571     1.486308502952     1.007825032070
           N         -0.570288403695     1.247865856571     1.467025502952    14.003074004780
           C          0.298052596305     0.099571856571     1.275946502952    12.000000000000
           H         -1.210281403695     1.314245856571     0.699489502952     1.007825032070
           C          0.858030596305     0.103276856571    -0.131016497048    12.000000000000
           H          1.132103596305     0.058338856571     1.977843502952     1.007825032070
           H         -0.287339403695    -0.804585143429     1.412324502952     1.007825032070
           O         -0.202586403695    -0.075112143429    -1.025643497048    15.994914619560
           H          1.363179596305     1.047596856571    -0.332814497048     1.007825032070
           H          1.581843596305    -0.701547143429    -0.238657497048     1.007825032070
           C         -0.339246403695    -1.375778143429    -1.502258497048    12.000000000000
           H         -0.342720403695    -2.039423143429    -0.648291497048     1.007825032070
           H         -1.271385403695    -1.503106143429    -2.049877497048     1.007825032070
           H          0.485761596305    -1.647890143429    -2.157335497048     1.007825032070

  Running in c1 symmetry.

  Rotational constants: A =      0.37954  B =      0.09731  C =      0.09226 [cm^-1]
  Rotational constants: A =  11378.30362  B =   2917.32449  C =   2765.73691 [MHz]
  Nuclear repulsion =  197.088331441070864

  Charge       = 0
  Multiplicity = 1
  Electrons    = 42
  Nalpha       = 21
  Nbeta        = 21

  ==> Algorithm <==

  SCF Algorithm Type is DF.
  DIIS enabled.
  MOM disabled.
  Fractional occupation disabled.
  Guess Type is CORE.
  Energy threshold   = 1.00e-06
  Density threshold  = 1.00e-06
  Integral threshold = 0.00e+00

  ==> Primary Basis <==

  Basis Set: 6-31G*
    Number of shells: 48
    Number of basis function: 93
    Number of Cartesian functions: 93
    Spherical Harmonics?: false
    Max angular momentum: 2

  ==> Pre-Iterations <==

   -------------------------------------------------------
    Irrep   Nso     Nmo     Nalpha   Nbeta   Ndocc  Nsocc
   -------------------------------------------------------
     A         93      93       0       0       0       0
   -------------------------------------------------------
    Total      93      93      21      21      21       0
   -------------------------------------------------------

 OEINTS: Overlap, kinetic, potential, dipole, and quadrupole integrals
         stored in file 35.

  ==> Integral Setup <==

  ==> DFJK: Density-Fitted J/K Matrices <==

    J tasked:                  Yes
    K tasked:                  Yes
    wK tasked:                  No
    OpenMP threads:              1
    Integrals threads:           1
    Memory (MB):              1430
    Algorithm:                Core
    Integral Cache:           NONE
    Schwarz Cutoff:          1E-12
    Fitting Condition:       1E-12

   => Auxiliary Basis Set <=

  Basis Set: 
    Number of shells: 201
    Number of basis function: 630
    Number of Cartesian functions: 630
    Spherical Harmonics?: false
    Max angular momentum: 3

  Minimum eigenvalue in the overlap matrix is 4.9554758897E-03.
  Using Symmetric Orthogonalization.
  SCF Guess: Core (One-Electron) Hamiltonian.

  ==> Iterations <==

                           Total Energy        Delta E     RMS |[F,P]|

   @DF-RHF iter   1:  -201.85302623087540   -2.01853e+02   7.99844e-02 
   @DF-RHF iter   2:  -158.03693166848927    4.38161e+01   6.95742e-02 DIIS
   @DF-RHF iter   3:  -219.77326550463630   -6.17363e+01   5.35344e-02 DIIS
   @DF-RHF iter   4:  -241.02314897636029   -2.12499e+01   3.81104e-02 DIIS
   @DF-RHF iter   5:  -247.90087974196280   -6.87773e+00   7.19837e-03 DIIS
   @DF-RHF iter   6:  -248.07951442310014   -1.78635e-01   2.82000e-03 DIIS
   @DF-RHF iter   7:  -248.11306586791983   -3.35514e-02   7.08394e-04 DIIS
   @DF-RHF iter   8:  -248.11618638289571   -3.12051e-03   2.09838e-04 DIIS
   @DF-RHF iter   9:  -248.11646681654742   -2.80434e-04   8.55602e-05 DIIS
   @DF-RHF iter  10:  -248.11651626560820   -4.94491e-05   2.56671e-05 DIIS
   @DF-RHF iter  11:  -248.11652151282578   -5.24722e-06   6.28613e-06 DIIS
   @DF-RHF iter  12:  -248.11652179544399   -2.82618e-07   1.56495e-06 DIIS
   @DF-RHF iter  13:  -248.11652181579603   -2.03520e-08   3.99653e-07 DIIS

  ==> Post-Iterations <==

    Orbital Energies (a.u.)
    -----------------------

    Doubly Occupied:                                                      

       1A    -20.558445     2A    -15.527044     3A    -11.271204  
       4A    -11.267970     5A    -11.241238     6A     -1.385593  
       7A     -1.175163     8A     -0.996259     9A     -0.918378  
      10A     -0.819838    11A     -0.691302    12A     -0.669456  
      13A     -0.643099    14A     -0.634455    15A     -0.575818  
      16A     -0.560421    17A     -0.540171    18A     -0.502235  
      19A     -0.473641    20A     -0.427428    21A     -0.369829  

    Virtual:                                                              

      22A      0.231408    23A      0.254753    24A      0.283686  
      25A      0.287660    26A      0.300576    27A      0.312740  
      28A      0.323033    29A      0.337566    30A      0.360495  
      31A      0.380055    32A      0.423048    33A      0.438285  
      34A      0.464494    35A      0.744149    36A      0.771400  
      37A      0.781764    38A      0.794847    39A      0.799940  
      40A      0.849333    41A      0.857422    42A      0.916104  
      43A      0.959294    44A      1.008944    45A      1.080822  
      46A      1.086259    47A      1.120512    48A      1.128867  
      49A      1.144417    50A      1.149261    51A      1.175577  
      52A      1.211863    53A      1.225134    54A      1.240356  
      55A      1.257105    56A      1.267271    57A      1.319948  
      58A      1.423681    59A      1.438503    60A      1.570438  
      61A      1.659041    62A      1.673560    63A      1.723791  
      64A      1.788174    65A      1.867453    66A      1.934155  
      67A      1.986908    68A      2.128487    69A      2.158874  
      70A      2.268853    71A      2.323752    72A      2.366521  
      73A      2.383778    74A      2.432074    75A      2.460481  
      76A      2.482211    77A      2.526717    78A      2.564758  
      79A      2.681286    80A      2.702034    81A      2.761869  
      82A      2.820148    83A      2.881488    84A      2.928982  
      85A      3.019795    86A      3.073214    87A      3.150997  
      88A      3.306997    89A      4.229189    90A      4.388039  
      91A      4.655048    92A      4.714934    93A      4.893202  

    Final Occupation by Irrep:
              A 
    DOCC [    21 ]

  Energy converged.

  @DF-RHF Final Energy:  -248.11652181579603

   => Energetics <=

    Nuclear Repulsion Energy =            197.0883314410708635
    One-Electron Energy =                -727.9116529749810525
    Two-Electron Energy =                 282.7067997181139845
    DFT Exchange-Correlation Energy =       0.0000000000000000
    Empirical Dispersion Energy =           0.0000000000000000
    PCM Polarization Energy =               0.0000000000000000
    EFP Energy =                            0.0000000000000000
    Total Energy =                       -248.1165218157962045

    Alert: EFP and PCM quantities not currently incorporated into SCF psivars.

Properties will be evaluated at   0.000000,   0.000000,   0.000000 Bohr
  ==> Properties <==


Properties computed using the SCF density matrix

  Nuclear Dipole Moment: (a.u.)
     X:     1.3254      Y:    -2.0480      Z:     0.1305

  Electronic Dipole Moment: (a.u.)
     X:    -0.7110      Y:     1.6527      Z:    -0.5270

  Dipole Moment: (a.u.)
     X:     0.6143      Y:    -0.3952      Z:    -0.3965     Total:     0.8312

  Dipole Moment: (Debye)
     X:     1.5615      Y:    -1.0046      Z:    -1.0079     Total:     2.1127


  Saving occupied orbitals to File 180.

*** tstop() called on cx1-3-6-4.cx1.hpc.ic.ac.uk at Tue Jul  5 16:41:32 2016
Module time:
	user time   =       4.88 seconds =       0.08 minutes
	system time =       0.05 seconds =       0.00 minutes
	total time  =          5 seconds =       0.08 minutes
Total time:
	user time   =       4.88 seconds =       0.08 minutes
	system time =       0.05 seconds =       0.00 minutes
	total time  =          5 seconds =       0.08 minutes


Properties will be evaluated at   0.000000,   0.000000,   0.000000 Bohr

Properties computed using the  density matrix

  Nuclear Dipole Moment: (a.u.)
     X:     1.3254      Y:    -2.0480      Z:     0.1305

  Electronic Dipole Moment: (a.u.)
     X:    -0.7110      Y:     1.6527      Z:    -0.5270

  Dipole Moment: (a.u.)
     X:     0.6143      Y:    -0.3952      Z:    -0.3965     Total:     0.8312

  Dipole Moment: (Debye)
     X:     1.5615      Y:    -1.0046      Z:    -1.0079     Total:     2.1127

  Quadrupole Moment: (Debye Ang)
    XX:   -31.7505     YY:   -28.7197     ZZ:   -36.9641
    XY:     1.8689     XZ:     3.3010     YZ:     0.6770

  Traceless Quadrupole Moment: (Debye Ang)
    XX:     0.7276     YY:     3.7584     ZZ:    -4.4860
    XY:     1.8689     XZ:     3.3010     YZ:     0.6770

  Mulliken Charges: (a.u.)
   Center  Symbol    Alpha    Beta     Spin     Total
       1     H     0.33645  0.33645  0.00000  0.32711
       2     N     3.92116  3.92116  0.00000 -0.84232
       3     C     3.06757  3.06757  0.00000 -0.13513
       4     H     0.32216  0.32216  0.00000  0.35567
       5     C     3.00651  3.00651  0.00000 -0.01303
       6     H     0.42178  0.42178  0.00000  0.15644
       7     H     0.41620  0.41620  0.00000  0.16759
       8     O     4.30809  4.30809  0.00000 -0.61618
       9     H     0.42054  0.42054  0.00000  0.15891
      10     H     0.43079  0.43079  0.00000  0.13842
      11     C     3.08057  3.08057  0.00000 -0.16113
      12     H     0.43006  0.43006  0.00000  0.13989
      13     H     0.41168  0.41168  0.00000  0.17664
      14     H     0.42644  0.42644  0.00000  0.14713

   Total alpha = 21.00000, Total beta = 21.00000, Total charge = -0.00000


*** PSI4 exiting successfully. Buy a developer a beer!
