    -----------------------------------------------------------------------
          Psi4: An Open-Source Ab Initio Electronic Structure Package
                              Psi4 (no tag) Driver

                          Git: Rev {detached?}  

    J. M. Turney, A. C. Simmonett, R. M. Parrish, E. G. Hohenstein,
    F. A. Evangelista, J. T. Fermann, B. J. Mintz, L. A. Burns, J. J. Wilke,
    M. L. Abrams, N. J. Russ, M. L. Leininger, C. L. Janssen, E. T. Seidl,
    W. D. Allen, H. F. Schaefer, R. A. King, E. F. Valeev, C. D. Sherrill,
    and T. D. Crawford, WIREs Comput. Mol. Sci. 2, 556-565 (2012)
    (doi: 10.1002/wcms.93)

                         Additional Contributions by
    A. E. DePrince, M. Saitow, U. Bozkaya, A. Yu. Sokolov
    -----------------------------------------------------------------------


    Psi4 started on: Tue Jul  5 16:37:12 2016

    Process ID:  18146
    PSI4DATADIR: /export131/home/mjharvey/miniconda3/share
    Memory level set to 256.000 MB

  ==> Input File <==

--------------------------------------------------------------------------
set {
	reference rhf
	basis 6-31G*
}


set_num_threads( 1 )
memory 2 gb

molecule MOL {
0 1

O	 -0.682937	 1.318834	 -0.186099
C	 -0.860635	 0.152188	 -0.042321
C	 -2.173363	 -0.477127	 0.338347
O	 0.083258	 -0.765189	 -0.202595
H	 -2.477673	 -1.180929	 -0.427595
H	 -2.923125	 0.290956	 0.455536
H	 -2.058825	 -1.029004	 1.264191
C	 0.871714	 -1.131578	 0.927402
C	 1.746242	 0.018171	 1.392081
H	 1.463587	 -1.999870	 0.680629
H	 0.150263	 -1.400359	 1.685534
H	 2.275974	 -0.265598	 2.296287
H	 2.477531	 0.276545	 0.636550
H	 1.142580	 0.892295	 1.610974

	symmetry c1
}
set optking {
	frozen_dihedral = ("
		10 8 4 2
	")
}

ee = energy('scf')
oeprop('DIPOLE', 'QUADRUPOLE', 'MULLIKEN_CHARGES')
f=open( 'psi4out.xyz', 'w' )
f.write( "14  " )
f.write( str(ee) + "\n" )
f.write( MOL.save_string_xyz() )
f.close()
--------------------------------------------------------------------------

  Memory set to   2.000 GiB by Python script.

*** tstart() called on cx1-1-2-4.cx1.hpc.ic.ac.uk
*** at Tue Jul  5 16:37:12 2016


         ---------------------------------------------------------
                                   SCF
            by Justin Turney, Rob Parrish, and Andy Simmonett
                              RHF Reference
                        1 Threads,   2000 MiB Core
         ---------------------------------------------------------

  ==> Geometry <==

    Molecular point group: c1
    Full point group: C1

    Geometry (in Angstrom), charge = 0, multiplicity = 1:

       Center              X                  Y                   Z               Mass       
    ------------   -----------------  -----------------  -----------------  -----------------
           O         -0.517880648979     1.464828456133    -0.565818998538    15.994914619560
           C         -0.695578648979     0.298182456133    -0.422040998538    12.000000000000
           C         -2.008306648979    -0.331132543867    -0.041372998538    12.000000000000
           O          0.248314351021    -0.619194543867    -0.582314998538    15.994914619560
           H         -2.312616648979    -1.034934543867    -0.807314998538     1.007825032070
           H         -2.758068648979     0.436950456133     0.075816001462     1.007825032070
           H         -1.893768648979    -0.883009543867     0.884471001462     1.007825032070
           C          1.036770351021    -0.985583543867     0.547682001462    12.000000000000
           C          1.911298351021     0.164165456133     1.012361001462    12.000000000000
           H          1.628643351021    -1.853875543867     0.300909001462     1.007825032070
           H          0.315319351021    -1.254364543867     1.305814001462     1.007825032070
           H          2.441030351021    -0.119603543867     1.916567001462     1.007825032070
           H          2.642587351021     0.422539456133     0.256830001462     1.007825032070
           H          1.307636351021     1.038289456133     1.231254001462     1.007825032070

  Running in c1 symmetry.

  Rotational constants: A =      0.20792  B =      0.08891  C =      0.07301 [cm^-1]
  Rotational constants: A =   6233.35548  B =   2665.52838  C =   2188.69911 [MHz]
  Nuclear repulsion =  250.318837437804206

  Charge       = 0
  Multiplicity = 1
  Electrons    = 48
  Nalpha       = 24
  Nbeta        = 24

  ==> Algorithm <==

  SCF Algorithm Type is DF.
  DIIS enabled.
  MOM disabled.
  Fractional occupation disabled.
  Guess Type is CORE.
  Energy threshold   = 1.00e-06
  Density threshold  = 1.00e-06
  Integral threshold = 0.00e+00

  ==> Primary Basis <==

  Basis Set: 6-31G*
    Number of shells: 52
    Number of basis function: 106
    Number of Cartesian functions: 106
    Spherical Harmonics?: false
    Max angular momentum: 2

  ==> Pre-Iterations <==

   -------------------------------------------------------
    Irrep   Nso     Nmo     Nalpha   Nbeta   Ndocc  Nsocc
   -------------------------------------------------------
     A        106     106       0       0       0       0
   -------------------------------------------------------
    Total     106     106      24      24      24       0
   -------------------------------------------------------

 OEINTS: Overlap, kinetic, potential, dipole, and quadrupole integrals
         stored in file 35.

  ==> Integral Setup <==

  ==> DFJK: Density-Fitted J/K Matrices <==

    J tasked:                  Yes
    K tasked:                  Yes
    wK tasked:                  No
    OpenMP threads:              1
    Integrals threads:           1
    Memory (MB):              1430
    Algorithm:                Core
    Integral Cache:           NONE
    Schwarz Cutoff:          1E-12
    Fitting Condition:       1E-12

   => Auxiliary Basis Set <=

  Basis Set: 
    Number of shells: 216
    Number of basis function: 686
    Number of Cartesian functions: 686
    Spherical Harmonics?: false
    Max angular momentum: 3

  Minimum eigenvalue in the overlap matrix is 3.8882490771E-03.
  Using Symmetric Orthogonalization.
  SCF Guess: Core (One-Electron) Hamiltonian.

  ==> Iterations <==

                           Total Energy        Delta E     RMS |[F,P]|

   @DF-RHF iter   1:  -231.02308510612554   -2.31023e+02   8.47660e-02 
   @DF-RHF iter   2:  -212.55470283282372    1.84684e+01   6.65518e-02 DIIS
   @DF-RHF iter   3:  -276.65015955612012   -6.40955e+01   4.67851e-02 DIIS
   @DF-RHF iter   4:  -289.39253192720673   -1.27424e+01   3.96146e-02 DIIS
   @DF-RHF iter   5:  -297.42900922510626   -8.03648e+00   3.37190e-02 DIIS
   @DF-RHF iter   6:  -305.73027088092158   -8.30126e+00   4.19281e-03 DIIS
   @DF-RHF iter   7:  -305.83404323983495   -1.03772e-01   1.67437e-03 DIIS
   @DF-RHF iter   8:  -305.84838687886804   -1.43436e-02   5.91705e-04 DIIS
   @DF-RHF iter   9:  -305.85127588436012   -2.88901e-03   1.34106e-04 DIIS
   @DF-RHF iter  10:  -305.85143709451700   -1.61210e-04   7.56060e-05 DIIS
   @DF-RHF iter  11:  -305.85147311386868   -3.60194e-05   2.18844e-05 DIIS
   @DF-RHF iter  12:  -305.85147999763444   -6.88377e-06   1.21228e-05 DIIS
   @DF-RHF iter  13:  -305.85148130712787   -1.30949e-06   4.10523e-06 DIIS
   @DF-RHF iter  14:  -305.85148157038816   -2.63260e-07   1.23120e-06 DIIS
   @DF-RHF iter  15:  -305.85148159648520   -2.60970e-08   3.08194e-07 DIIS

  ==> Post-Iterations <==

    Orbital Energies (a.u.)
    -----------------------

    Doubly Occupied:                                                      

       1A    -20.583810     2A    -20.554934     3A    -11.377367  
       4A    -11.300601     5A    -11.234632     6A    -11.220837  
       7A     -1.462599     8A     -1.367403     9A     -1.050810  
      10A     -1.006692    11A     -0.890003    12A     -0.766579  
      13A     -0.693195    14A     -0.684552    15A     -0.674991  
      16A     -0.608061    17A     -0.595691    18A     -0.580636  
      19A     -0.548694    20A     -0.541915    21A     -0.524566  
      22A     -0.479070    23A     -0.452582    24A     -0.437000  

    Virtual:                                                              

      25A      0.175535    26A      0.220208    27A      0.263902  
      28A      0.290679    29A      0.296518    30A      0.306204  
      31A      0.315265    32A      0.337758    33A      0.345162  
      34A      0.374233    35A      0.395954    36A      0.413585  
      37A      0.522687    38A      0.570564    39A      0.692667  
      40A      0.725909    41A      0.739351    42A      0.759695  
      43A      0.785135    44A      0.808375    45A      0.827175  
      46A      0.845216    47A      0.891463    48A      0.914331  
      49A      0.976166    50A      1.008853    51A      1.073492  
      52A      1.089821    53A      1.115438    54A      1.148074  
      55A      1.160734    56A      1.172040    57A      1.184453  
      58A      1.202289    59A      1.232715    60A      1.255622  
      61A      1.272738    62A      1.325539    63A      1.349972  
      64A      1.400650    65A      1.408821    66A      1.453050  
      67A      1.562002    68A      1.646751    69A      1.664591  
      70A      1.735940    71A      1.818131    72A      1.887396  
      73A      1.965631    74A      2.022880    75A      2.045700  
      76A      2.087048    77A      2.134139    78A      2.156387  
      79A      2.204580    80A      2.213394    81A      2.249724  
      82A      2.306271    83A      2.328127    84A      2.418551  
      85A      2.443261    86A      2.513060    87A      2.547467  
      88A      2.592207    89A      2.652458    90A      2.675263  
      91A      2.736685    92A      2.745535    93A      2.788426  
      94A      2.972774    95A      3.000830    96A      3.168399  
      97A      3.247851    98A      3.299421    99A      3.370212  
     100A      3.487266   101A      4.379583   102A      4.536424  
     103A      4.595576   104A      4.684592   105A      4.843724  
     106A      4.899620  

    Final Occupation by Irrep:
              A 
    DOCC [    24 ]

  Energy converged.

  @DF-RHF Final Energy:  -305.85148159648520

   => Energetics <=

    Nuclear Repulsion Energy =            250.3188374378042056
    One-Electron Energy =                -913.0661857385294979
    Two-Electron Energy =                 356.8958667042397792
    DFT Exchange-Correlation Energy =       0.0000000000000000
    Empirical Dispersion Energy =           0.0000000000000000
    PCM Polarization Energy =               0.0000000000000000
    EFP Energy =                            0.0000000000000000
    Total Energy =                       -305.8514815964855416

    Alert: EFP and PCM quantities not currently incorporated into SCF psivars.

Properties will be evaluated at   0.000000,   0.000000,   0.000000 Bohr
  ==> Properties <==


Properties computed using the SCF density matrix

  Nuclear Dipole Moment: (a.u.)
     X:     1.2838      Y:    -3.0408      Z:     4.8359

  Electronic Dipole Moment: (a.u.)
     X:    -1.3452      Y:     1.9659      Z:    -4.0268

  Dipole Moment: (a.u.)
     X:    -0.0615      Y:    -1.0750      Z:     0.8091     Total:     1.3468

  Dipole Moment: (Debye)
     X:    -0.1562      Y:    -2.7323      Z:     2.0565     Total:     3.4233


  Saving occupied orbitals to File 180.

*** tstop() called on cx1-1-2-4.cx1.hpc.ic.ac.uk at Tue Jul  5 16:37:18 2016
Module time:
	user time   =       5.77 seconds =       0.10 minutes
	system time =       0.03 seconds =       0.00 minutes
	total time  =          6 seconds =       0.10 minutes
Total time:
	user time   =       5.77 seconds =       0.10 minutes
	system time =       0.03 seconds =       0.00 minutes
	total time  =          6 seconds =       0.10 minutes


Properties will be evaluated at   0.000000,   0.000000,   0.000000 Bohr

Properties computed using the  density matrix

  Nuclear Dipole Moment: (a.u.)
     X:     1.2838      Y:    -3.0408      Z:     4.8359

  Electronic Dipole Moment: (a.u.)
     X:    -1.3452      Y:     1.9659      Z:    -4.0268

  Dipole Moment: (a.u.)
     X:    -0.0615      Y:    -1.0750      Z:     0.8091     Total:     1.3468

  Dipole Moment: (Debye)
     X:    -0.1562      Y:    -2.7323      Z:     2.0565     Total:     3.4233

  Quadrupole Moment: (Debye Ang)
    XX:   -32.4397     YY:   -40.6462     ZZ:   -36.7898
    XY:     0.3989     XZ:     1.2897     YZ:     0.3871

  Traceless Quadrupole Moment: (Debye Ang)
    XX:     4.1855     YY:    -4.0209     ZZ:    -0.1646
    XY:     0.3989     XZ:     1.2897     YZ:     0.3871

  Mulliken Charges: (a.u.)
   Center  Symbol    Alpha    Beta     Spin     Total
       1     O     4.25848  4.25848  0.00000 -0.51696
       2     C     2.62871  2.62871  0.00000  0.74258
       3     C     3.28484  3.28484  0.00000 -0.56967
       4     O     4.31122  4.31122  0.00000 -0.62244
       5     H     0.39816  0.39816  0.00000  0.20368
       6     H     0.39854  0.39854  0.00000  0.20291
       7     H     0.40740  0.40740  0.00000  0.18520
       8     C     3.00531  3.00531  0.00000 -0.01061
       9     C     3.25292  3.25292  0.00000 -0.50585
      10     H     0.40241  0.40241  0.00000  0.19518
      11     H     0.42365  0.42365  0.00000  0.15271
      12     H     0.41991  0.41991  0.00000  0.16017
      13     H     0.40648  0.40648  0.00000  0.18705
      14     H     0.40197  0.40197  0.00000  0.19606

   Total alpha = 24.00000, Total beta = 24.00000, Total charge =  0.00000


*** PSI4 exiting successfully. Buy a developer a beer!
