    -----------------------------------------------------------------------
          Psi4: An Open-Source Ab Initio Electronic Structure Package
                              Psi4 (no tag) Driver

                          Git: Rev {detached?}  

    J. M. Turney, A. C. Simmonett, R. M. Parrish, E. G. Hohenstein,
    F. A. Evangelista, J. T. Fermann, B. J. Mintz, L. A. Burns, J. J. Wilke,
    M. L. Abrams, N. J. Russ, M. L. Leininger, C. L. Janssen, E. T. Seidl,
    W. D. Allen, H. F. Schaefer, R. A. King, E. F. Valeev, C. D. Sherrill,
    and T. D. Crawford, WIREs Comput. Mol. Sci. 2, 556-565 (2012)
    (doi: 10.1002/wcms.93)

                         Additional Contributions by
    A. E. DePrince, M. Saitow, U. Bozkaya, A. Yu. Sokolov
    -----------------------------------------------------------------------


    Psi4 started on: Tue Jul  5 16:37:07 2016

    Process ID:  20089
    PSI4DATADIR: /export131/home/mjharvey/miniconda3/share
    Memory level set to 256.000 MB

  ==> Input File <==

--------------------------------------------------------------------------
set {
	reference rhf
	basis 6-31G*
}


set_num_threads( 1 )
memory 2 gb

molecule MOL {
0 1

H	 1.833190	 0.660222	 -1.927415
N	 1.449140	 1.245334	 -1.210713
C	 1.267428	 0.496480	 0.024474
H	 0.567695	 1.579743	 -1.551506
C	 -0.016086	 -0.325158	 -0.029487
H	 1.200461	 1.212940	 0.837637
H	 2.109120	 -0.161270	 0.255341
C	 -1.282277	 0.529072	 0.046735
H	 -0.012495	 -0.908639	 -0.945788
H	 -0.015903	 -1.041248	 0.791956
C	 -1.313422	 1.640626	 -1.001683
H	 -1.361066	 0.968841	 1.038895
H	 -2.157618	 -0.105503	 -0.075938
H	 -0.469051	 2.313549	 -0.883644
H	 -2.221045	 2.230972	 -0.922727
H	 -1.270971	 1.231908	 -2.007351

	symmetry c1
}
set optking {
	frozen_dihedral = ("
		6 3 5 9,
		12 8 5 9
	")
}

ee = energy('scf')
oeprop('DIPOLE', 'QUADRUPOLE', 'MULLIKEN_CHARGES')
f=open( 'psi4out.xyz', 'w' )
f.write( "16  " )
f.write( str(ee) + "\n" )
f.write( MOL.save_string_xyz() )
f.close()
--------------------------------------------------------------------------

  Memory set to   2.000 GiB by Python script.

*** tstart() called on cx1-3-16-4.cx1.hpc.ic.ac.uk
*** at Tue Jul  5 16:37:07 2016


         ---------------------------------------------------------
                                   SCF
            by Justin Turney, Rob Parrish, and Andy Simmonett
                              RHF Reference
                        1 Threads,   2000 MiB Core
         ---------------------------------------------------------

  ==> Geometry <==

    Molecular point group: c1
    Full point group: C1

    Geometry (in Angstrom), charge = 0, multiplicity = 1:

       Center              X                  Y                   Z               Mass       
    ------------   -----------------  -----------------  -----------------  -----------------
           H          1.801059639245    -0.072783038975    -1.463516361365     1.007825032070
           N          1.417009639245     0.512328961025    -0.746814361365    14.003074004780
           C          1.235297639245    -0.236525038975     0.488372638635    12.000000000000
           H          0.535564639245     0.846737961025    -1.087607361365     1.007825032070
           C         -0.048216360755    -1.058163038975     0.434411638635    12.000000000000
           H          1.168330639245     0.479934961025     1.301535638635     1.007825032070
           H          2.076989639245    -0.894275038975     0.719239638635     1.007825032070
           C         -1.314407360755    -0.203933038975     0.510633638635    12.000000000000
           H         -0.044625360755    -1.641644038975    -0.481889361365     1.007825032070
           H         -0.048033360755    -1.774253038975     1.255854638635     1.007825032070
           C         -1.345552360755     0.907620961025    -0.537784361365    12.000000000000
           H         -1.393196360755     0.235835961025     1.502793638635     1.007825032070
           H         -2.189748360755    -0.838508038975     0.387960638635     1.007825032070
           H         -0.501181360755     1.580543961025    -0.419745361365     1.007825032070
           H         -2.253175360755     1.497966961025    -0.458828361365     1.007825032070
           H         -1.303101360755     0.498902961025    -1.543452361365     1.007825032070

  Running in c1 symmetry.

  Rotational constants: A =      0.23237  B =      0.13508  C =      0.09669 [cm^-1]
  Rotational constants: A =   6966.23256  B =   4049.61086  C =   2898.71898 [MHz]
  Nuclear repulsion =  197.729934140172020

  Charge       = 0
  Multiplicity = 1
  Electrons    = 42
  Nalpha       = 21
  Nbeta        = 21

  ==> Algorithm <==

  SCF Algorithm Type is DF.
  DIIS enabled.
  MOM disabled.
  Fractional occupation disabled.
  Guess Type is CORE.
  Energy threshold   = 1.00e-06
  Density threshold  = 1.00e-06
  Integral threshold = 0.00e+00

  ==> Primary Basis <==

  Basis Set: 6-31G*
    Number of shells: 52
    Number of basis function: 97
    Number of Cartesian functions: 97
    Spherical Harmonics?: false
    Max angular momentum: 2

  ==> Pre-Iterations <==

   -------------------------------------------------------
    Irrep   Nso     Nmo     Nalpha   Nbeta   Ndocc  Nsocc
   -------------------------------------------------------
     A         97      97       0       0       0       0
   -------------------------------------------------------
    Total      97      97      21      21      21       0
   -------------------------------------------------------

 OEINTS: Overlap, kinetic, potential, dipole, and quadrupole integrals
         stored in file 35.

  ==> Integral Setup <==

  ==> DFJK: Density-Fitted J/K Matrices <==

    J tasked:                  Yes
    K tasked:                  Yes
    wK tasked:                  No
    OpenMP threads:              1
    Integrals threads:           1
    Memory (MB):              1430
    Algorithm:                Core
    Integral Cache:           NONE
    Schwarz Cutoff:          1E-12
    Fitting Condition:       1E-12

   => Auxiliary Basis Set <=

  Basis Set: 
    Number of shells: 219
    Number of basis function: 680
    Number of Cartesian functions: 680
    Spherical Harmonics?: false
    Max angular momentum: 3

  Minimum eigenvalue in the overlap matrix is 4.8737432233E-03.
  Using Symmetric Orthogonalization.
  SCF Guess: Core (One-Electron) Hamiltonian.

  ==> Iterations <==

                           Total Energy        Delta E     RMS |[F,P]|

   @DF-RHF iter   1:  -164.15164777921933   -1.64152e+02   7.76253e-02 
   @DF-RHF iter   2:  -126.13542194780769    3.80162e+01   6.83147e-02 DIIS
   @DF-RHF iter   3:  -174.31794073732459   -4.81825e+01   5.13674e-02 DIIS
   @DF-RHF iter   4:  -194.20377925205287   -1.98858e+01   4.82561e-02 DIIS
   @DF-RHF iter   5:  -211.76432669905955   -1.75605e+01   9.97717e-03 DIIS
   @DF-RHF iter   6:  -212.23532545101443   -4.70999e-01   3.06144e-03 DIIS
   @DF-RHF iter   7:  -212.28129410717202   -4.59687e-02   1.19521e-03 DIIS
   @DF-RHF iter   8:  -212.28902594465632   -7.73184e-03   3.34682e-04 DIIS
   @DF-RHF iter   9:  -212.28976905895939   -7.43114e-04   8.48632e-05 DIIS
   @DF-RHF iter  10:  -212.28981820318597   -4.91442e-05   3.40811e-05 DIIS
   @DF-RHF iter  11:  -212.28982610373100   -7.90055e-06   9.15486e-06 DIIS
   @DF-RHF iter  12:  -212.28982663820938   -5.34478e-07   2.65760e-06 DIIS
   @DF-RHF iter  13:  -212.28982668550901   -4.72996e-08   5.53236e-07 DIIS

  ==> Post-Iterations <==

    Orbital Energies (a.u.)
    -----------------------

    Doubly Occupied:                                                      

       1A    -15.520655     2A    -11.239109     3A    -11.221331  
       4A    -11.215890     5A    -11.212225     6A     -1.181044  
       7A     -1.058497     8A     -0.972246     9A     -0.857423  
      10A     -0.790776    11A     -0.690067    12A     -0.629592  
      13A     -0.598499    14A     -0.576820    15A     -0.560800  
      16A     -0.544027    17A     -0.517813    18A     -0.484052  
      19A     -0.470386    20A     -0.451732    21A     -0.368611  

    Virtual:                                                              

      22A      0.226618    23A      0.262825    24A      0.277436  
      25A      0.281596    26A      0.297998    27A      0.318276  
      28A      0.323487    29A      0.336704    30A      0.344311  
      31A      0.357023    32A      0.381073    33A      0.405396  
      34A      0.431084    35A      0.472752    36A      0.479030  
      37A      0.712854    38A      0.732234    39A      0.736122  
      40A      0.772905    41A      0.801809    42A      0.846848  
      43A      0.903037    44A      0.917749    45A      0.946672  
      46A      0.982566    47A      0.999744    48A      1.055807  
      49A      1.066213    50A      1.123980    51A      1.143345  
      52A      1.153922    53A      1.157205    54A      1.179684  
      55A      1.207132    56A      1.224602    57A      1.241651  
      58A      1.247481    59A      1.259615    60A      1.266147  
      61A      1.287460    62A      1.320210    63A      1.377459  
      64A      1.536879    65A      1.656500    66A      1.722872  
      67A      1.795683    68A      1.827465    69A      1.887073  
      70A      1.919822    71A      1.985625    72A      2.112372  
      73A      2.184351    74A      2.229211    75A      2.270850  
      76A      2.314801    77A      2.344823    78A      2.385239  
      79A      2.416489    80A      2.454066    81A      2.538777  
      82A      2.607545    83A      2.675341    84A      2.701852  
      85A      2.723139    86A      2.784984    87A      2.789464  
      88A      2.870173    89A      2.960714    90A      2.997575  
      91A      3.060873    92A      3.120296    93A      4.275773  
      94A      4.582670    95A      4.719694    96A      4.864311  
      97A      4.961944  

    Final Occupation by Irrep:
              A 
    DOCC [    21 ]

  Energy converged.

  @DF-RHF Final Energy:  -212.28982668550901

   => Energetics <=

    Nuclear Repulsion Energy =            197.7299341401720199
    One-Electron Energy =                -677.7161181354940709
    Two-Electron Energy =                 267.6963573098128677
    DFT Exchange-Correlation Energy =       0.0000000000000000
    Empirical Dispersion Energy =           0.0000000000000000
    PCM Polarization Energy =               0.0000000000000000
    EFP Energy =                            0.0000000000000000
    Total Energy =                       -212.2898266855091833

    Alert: EFP and PCM quantities not currently incorporated into SCF psivars.

Properties will be evaluated at   0.000000,   0.000000,   0.000000 Bohr
  ==> Properties <==


Properties computed using the SCF density matrix

  Nuclear Dipole Moment: (a.u.)
     X:    -2.0207      Y:    -0.0779      Z:    -0.2675

  Electronic Dipole Moment: (a.u.)
     X:     1.5795      Y:    -0.3877      Z:     0.1831

  Dipole Moment: (a.u.)
     X:    -0.4412      Y:    -0.4656      Z:    -0.0844     Total:     0.6470

  Dipole Moment: (Debye)
     X:    -1.1215      Y:    -1.1834      Z:    -0.2144     Total:     1.6444


  Saving occupied orbitals to File 180.

*** tstop() called on cx1-3-16-4.cx1.hpc.ic.ac.uk at Tue Jul  5 16:37:14 2016
Module time:
	user time   =       6.58 seconds =       0.11 minutes
	system time =       0.05 seconds =       0.00 minutes
	total time  =          7 seconds =       0.12 minutes
Total time:
	user time   =       6.58 seconds =       0.11 minutes
	system time =       0.05 seconds =       0.00 minutes
	total time  =          7 seconds =       0.12 minutes


Properties will be evaluated at   0.000000,   0.000000,   0.000000 Bohr

Properties computed using the  density matrix

  Nuclear Dipole Moment: (a.u.)
     X:    -2.0207      Y:    -0.0779      Z:    -0.2675

  Electronic Dipole Moment: (a.u.)
     X:     1.5795      Y:    -0.3877      Z:     0.1831

  Dipole Moment: (a.u.)
     X:    -0.4412      Y:    -0.4656      Z:    -0.0844     Total:     0.6470

  Dipole Moment: (Debye)
     X:    -1.1215      Y:    -1.1834      Z:    -0.2144     Total:     1.6444

  Quadrupole Moment: (Debye Ang)
    XX:   -36.7561     YY:   -35.7122     ZZ:   -32.3853
    XY:    -3.6264     XZ:     0.3220     YZ:     0.9099

  Traceless Quadrupole Moment: (Debye Ang)
    XX:    -1.8049     YY:    -0.7610     ZZ:     2.5659
    XY:    -3.6264     XZ:     0.3220     YZ:     0.9099

  Mulliken Charges: (a.u.)
   Center  Symbol    Alpha    Beta     Spin     Total
       1     H     0.33707  0.33707  0.00000  0.32586
       2     N     3.93010  3.93010  0.00000 -0.86020
       3     C     3.07014  3.07014  0.00000 -0.14029
       4     H     0.31885  0.31885  0.00000  0.36229
       5     C     3.16066  3.16066  0.00000 -0.32133
       6     H     0.41904  0.41904  0.00000  0.16192
       7     H     0.41664  0.41664  0.00000  0.16672
       8     C     3.14845  3.14845  0.00000 -0.29690
       9     H     0.42630  0.42630  0.00000  0.14741
      10     H     0.42304  0.42304  0.00000  0.15393
      11     C     3.27376  3.27376  0.00000 -0.54752
      12     H     0.41949  0.41949  0.00000  0.16101
      13     H     0.41833  0.41833  0.00000  0.16335
      14     H     0.40661  0.40661  0.00000  0.18679
      15     H     0.41257  0.41257  0.00000  0.17487
      16     H     0.41897  0.41897  0.00000  0.16207

   Total alpha = 21.00000, Total beta = 21.00000, Total charge = -0.00000


*** PSI4 exiting successfully. Buy a developer a beer!
