    -----------------------------------------------------------------------
          Psi4: An Open-Source Ab Initio Electronic Structure Package
                              Psi4 (no tag) Driver

                          Git: Rev {detached?}  

    J. M. Turney, A. C. Simmonett, R. M. Parrish, E. G. Hohenstein,
    F. A. Evangelista, J. T. Fermann, B. J. Mintz, L. A. Burns, J. J. Wilke,
    M. L. Abrams, N. J. Russ, M. L. Leininger, C. L. Janssen, E. T. Seidl,
    W. D. Allen, H. F. Schaefer, R. A. King, E. F. Valeev, C. D. Sherrill,
    and T. D. Crawford, WIREs Comput. Mol. Sci. 2, 556-565 (2012)
    (doi: 10.1002/wcms.93)

                         Additional Contributions by
    A. E. DePrince, M. Saitow, U. Bozkaya, A. Yu. Sokolov
    -----------------------------------------------------------------------


    Psi4 started on: Tue Jul  5 16:45:26 2016

    Process ID:  31656
    PSI4DATADIR: /export131/home/mjharvey/miniconda3/share
    Memory level set to 256.000 MB

  ==> Input File <==

--------------------------------------------------------------------------
set {
	reference rhf
	basis 6-31G*
}


set_num_threads( 1 )
memory 2 gb

molecule MOL {
0 1

H	 -1.393535	 -0.830978	 1.753336
O	 -1.917411	 -0.045404	 1.688510
C	 -2.026376	 0.340750	 0.341611
C	 -0.673256	 0.843270	 -0.132153
H	 -2.339397	 -0.503104	 -0.270651
H	 -2.774606	 1.124267	 0.228006
C	 0.486613	 -0.083066	 0.235839
H	 -0.715586	 0.970948	 -1.210718
H	 -0.508072	 1.829858	 0.297090
C	 0.765248	 -0.120712	 1.739421
H	 1.378736	 0.236967	 -0.292564
H	 0.264762	 -1.091045	 -0.112873
C	 1.446297	 1.148314	 2.250711
H	 -0.170518	 -0.267562	 2.274673
H	 1.387866	 -0.982475	 1.972133
H	 0.831797	 2.024275	 2.063706
H	 1.629342	 1.094331	 3.319601
H	 2.402341	 1.305563	 1.759016

	symmetry c1
}
set optking {
	frozen_dihedral = ("
		14 10 7 11,
		10 7 4 8,
		2 3 4 8
	")
}

ee = energy('scf')
oeprop('DIPOLE', 'QUADRUPOLE', 'MULLIKEN_CHARGES')
f=open( 'psi4out.xyz', 'w' )
f.write( "18  " )
f.write( str(ee) + "\n" )
f.write( MOL.save_string_xyz() )
f.close()
--------------------------------------------------------------------------

  Memory set to   2.000 GiB by Python script.

*** tstart() called on cx1-3-2-3.cx1.hpc.ic.ac.uk
*** at Tue Jul  5 16:45:26 2016


         ---------------------------------------------------------
                                   SCF
            by Justin Turney, Rob Parrish, and Andy Simmonett
                              RHF Reference
                        1 Threads,   2000 MiB Core
         ---------------------------------------------------------

  ==> Geometry <==

    Molecular point group: c1
    Full point group: C1

    Geometry (in Angstrom), charge = 0, multiplicity = 1:

       Center              X                  Y                   Z               Mass       
    ------------   -----------------  -----------------  -----------------  -----------------
           H         -1.045097607670    -1.168885973671     0.707736044258     1.007825032070
           O         -1.568973607670    -0.383311973671     0.642910044258    15.994914619560
           C         -1.677938607670     0.002842026329    -0.703988955742    12.000000000000
           C         -0.324818607670     0.505362026329    -1.177752955742    12.000000000000
           H         -1.990959607670    -0.841011973671    -1.316250955742     1.007825032070
           H         -2.426168607670     0.786359026329    -0.817593955742     1.007825032070
           C          0.835050392330    -0.420973973671    -0.809760955742    12.000000000000
           H         -0.367148607670     0.633040026329    -2.256317955742     1.007825032070
           H         -0.159634607670     1.491950026329    -0.748509955742     1.007825032070
           C          1.113685392330    -0.458619973671     0.693821044258    12.000000000000
           H          1.727173392330    -0.100940973671    -1.338163955742     1.007825032070
           H          0.613199392330    -1.428952973671    -1.158472955742     1.007825032070
           C          1.794734392330     0.810406026329     1.205111044258    12.000000000000
           H          0.177919392330    -0.605469973671     1.229073044258     1.007825032070
           H          1.736303392330    -1.320382973671     0.926533044258     1.007825032070
           H          1.180234392330     1.686367026329     1.018106044258     1.007825032070
           H          1.977779392330     0.756423026329     2.274001044258     1.007825032070
           H          2.750778392330     0.967655026329     0.713416044258     1.007825032070

  Running in c1 symmetry.

  Rotational constants: A =      0.17819  B =      0.07852  C =      0.06722 [cm^-1]
  Rotational constants: A =   5342.02169  B =   2353.91441  C =   2015.14665 [MHz]
  Nuclear repulsion =  264.785845339097932

  Charge       = 0
  Multiplicity = 1
  Electrons    = 50
  Nalpha       = 25
  Nbeta        = 25

  ==> Algorithm <==

  SCF Algorithm Type is DF.
  DIIS enabled.
  MOM disabled.
  Fractional occupation disabled.
  Guess Type is CORE.
  Energy threshold   = 1.00e-06
  Density threshold  = 1.00e-06
  Integral threshold = 0.00e+00

  ==> Primary Basis <==

  Basis Set: 6-31G*
    Number of shells: 60
    Number of basis function: 114
    Number of Cartesian functions: 114
    Spherical Harmonics?: false
    Max angular momentum: 2

  ==> Pre-Iterations <==

   -------------------------------------------------------
    Irrep   Nso     Nmo     Nalpha   Nbeta   Ndocc  Nsocc
   -------------------------------------------------------
     A        114     114       0       0       0       0
   -------------------------------------------------------
    Total     114     114      25      25      25       0
   -------------------------------------------------------

 OEINTS: Overlap, kinetic, potential, dipole, and quadrupole integrals
         stored in file 35.

  ==> Integral Setup <==

  ==> DFJK: Density-Fitted J/K Matrices <==

    J tasked:                  Yes
    K tasked:                  Yes
    wK tasked:                  No
    OpenMP threads:              1
    Integrals threads:           1
    Memory (MB):              1430
    Algorithm:                Core
    Integral Cache:           NONE
    Schwarz Cutoff:          1E-12
    Fitting Condition:       1E-12

   => Auxiliary Basis Set <=

  Basis Set: 
    Number of shells: 252
    Number of basis function: 786
    Number of Cartesian functions: 786
    Spherical Harmonics?: false
    Max angular momentum: 3

  Minimum eigenvalue in the overlap matrix is 4.5947440530E-03.
  Using Symmetric Orthogonalization.
  SCF Guess: Core (One-Electron) Hamiltonian.

  ==> Iterations <==

                           Total Energy        Delta E     RMS |[F,P]|

   @DF-RHF iter   1:  -210.61578270132316   -2.10616e+02   7.50304e-02 
   @DF-RHF iter   2:  -129.68219928646079    8.09336e+01   8.98337e-02 DIIS
   @DF-RHF iter   3:  -227.20307032387348   -9.75209e+01   4.88452e-02 DIIS
   @DF-RHF iter   4:  -207.72684306036786    1.94762e+01   6.92536e-02 DIIS
   @DF-RHF iter   5:  -270.51307904110001   -6.27862e+01   9.16164e-03 DIIS
   @DF-RHF iter   6:  -271.08621240761454   -5.73133e-01   3.21090e-03 DIIS
   @DF-RHF iter   7:  -271.14154678789635   -5.53344e-02   1.03726e-03 DIIS
   @DF-RHF iter   8:  -271.14959940971426   -8.05262e-03   2.29446e-04 DIIS
   @DF-RHF iter   9:  -271.15016828525086   -5.68876e-04   8.06651e-05 DIIS
   @DF-RHF iter  10:  -271.15023033384023   -6.20486e-05   2.58692e-05 DIIS
   @DF-RHF iter  11:  -271.15023825124626   -7.91741e-06   9.08843e-06 DIIS
   @DF-RHF iter  12:  -271.15023911133767   -8.60091e-07   2.68040e-06 DIIS
   @DF-RHF iter  13:  -271.15023919497696   -8.36393e-08   7.09124e-07 DIIS

  ==> Post-Iterations <==

    Orbital Energies (a.u.)
    -----------------------

    Doubly Occupied:                                                      

       1A    -20.552580     2A    -11.270857     3A    -11.218956  
       4A    -11.214049     5A    -11.208248     6A    -11.205358  
       7A     -1.369499     8A     -1.080347     9A     -1.011478  
      10A     -0.924153    11A     -0.833783    12A     -0.786929  
      13A     -0.704684    14A     -0.648558    15A     -0.615540  
      16A     -0.605871    17A     -0.585156    18A     -0.543354  
      19A     -0.535807    20A     -0.520369    21A     -0.494423  
      22A     -0.476757    23A     -0.459215    24A     -0.449949  
      25A     -0.410835  

    Virtual:                                                              

      26A      0.221557    27A      0.247298    28A      0.268603  
      29A      0.275717    30A      0.297332    31A      0.310494  
      32A      0.313975    33A      0.327161    34A      0.342004  
      35A      0.354738    36A      0.367703    37A      0.392050  
      38A      0.407152    39A      0.435584    40A      0.437242  
      41A      0.457108    42A      0.488048    43A      0.707774  
      44A      0.732182    45A      0.744516    46A      0.758484  
      47A      0.773852    48A      0.804242    49A      0.831311  
      50A      0.887252    51A      0.915470    52A      0.939845  
      53A      0.956537    54A      0.982071    55A      1.019472  
      56A      1.079630    57A      1.104260    58A      1.119571  
      59A      1.139097    60A      1.159460    61A      1.169615  
      62A      1.189722    63A      1.193856    64A      1.203830  
      65A      1.224059    66A      1.228582    67A      1.255140  
      68A      1.260575    69A      1.275746    70A      1.306327  
      71A      1.393316    72A      1.432616    73A      1.450969  
      74A      1.511898    75A      1.645824    76A      1.667797  
      77A      1.744350    78A      1.796589    79A      1.835614  
      80A      1.871132    81A      1.918773    82A      2.008017  
      83A      2.048825    84A      2.102622    85A      2.151370  
      86A      2.201758    87A      2.228550    88A      2.277995  
      89A      2.301801    90A      2.341187    91A      2.406404  
      92A      2.418539    93A      2.450036    94A      2.478481  
      95A      2.572894    96A      2.607157    97A      2.666554  
      98A      2.690949    99A      2.726688   100A      2.763729  
     101A      2.800095   102A      2.806800   103A      2.887634  
     104A      2.951370   105A      3.006755   106A      3.050800  
     107A      3.095659   108A      3.223717   109A      4.223356  
     110A      4.586973   111A      4.658944   112A      4.795954  
     113A      4.934412   114A      4.970553  

    Final Occupation by Irrep:
              A 
    DOCC [    25 ]

  Energy converged.

  @DF-RHF Final Energy:  -271.15023919497696

   => Energetics <=

    Nuclear Repulsion Energy =            264.7858453390979321
    One-Electron Energy =                -892.4189568726399102
    Two-Electron Energy =                 356.4828723385651301
    DFT Exchange-Correlation Energy =       0.0000000000000000
    Empirical Dispersion Energy =           0.0000000000000000
    PCM Polarization Energy =               0.0000000000000000
    EFP Energy =                            0.0000000000000000
    Total Energy =                       -271.1502391949768480

    Alert: EFP and PCM quantities not currently incorporated into SCF psivars.

Properties will be evaluated at   0.000000,   0.000000,   0.000000 Bohr
  ==> Properties <==


Properties computed using the SCF density matrix

  Nuclear Dipole Moment: (a.u.)
     X:     3.9058      Y:     0.8008      Z:    -0.7154

  Electronic Dipole Moment: (a.u.)
     X:    -3.6666      Y:    -1.0733      Z:     0.1883

  Dipole Moment: (a.u.)
     X:     0.2392      Y:    -0.2725      Z:    -0.5271     Total:     0.6398

  Dipole Moment: (Debye)
     X:     0.6080      Y:    -0.6926      Z:    -1.3397     Total:     1.6261


  Saving occupied orbitals to File 180.

*** tstop() called on cx1-3-2-3.cx1.hpc.ic.ac.uk at Tue Jul  5 16:45:35 2016
Module time:
	user time   =       8.64 seconds =       0.14 minutes
	system time =       0.07 seconds =       0.00 minutes
	total time  =          9 seconds =       0.15 minutes
Total time:
	user time   =       8.64 seconds =       0.14 minutes
	system time =       0.07 seconds =       0.00 minutes
	total time  =          9 seconds =       0.15 minutes


Properties will be evaluated at   0.000000,   0.000000,   0.000000 Bohr

Properties computed using the  density matrix

  Nuclear Dipole Moment: (a.u.)
     X:     3.9058      Y:     0.8008      Z:    -0.7154

  Electronic Dipole Moment: (a.u.)
     X:    -3.6666      Y:    -1.0733      Z:     0.1883

  Dipole Moment: (a.u.)
     X:     0.2392      Y:    -0.2725      Z:    -0.5271     Total:     0.6398

  Dipole Moment: (Debye)
     X:     0.6080      Y:    -0.6926      Z:    -1.3397     Total:     1.6261

  Quadrupole Moment: (Debye Ang)
    XX:   -42.6674     YY:   -38.1274     ZZ:   -40.6725
    XY:    -0.1460     XZ:     2.8270     YZ:    -0.8542

  Traceless Quadrupole Moment: (Debye Ang)
    XX:    -2.1783     YY:     2.3617     ZZ:    -0.1834
    XY:    -0.1460     XZ:     2.8270     YZ:    -0.8542

  Mulliken Charges: (a.u.)
   Center  Symbol    Alpha    Beta     Spin     Total
       1     H     0.27494  0.27494  0.00000  0.45013
       2     O     4.36884  4.36884  0.00000 -0.73768
       3     C     2.99872  2.99872  0.00000  0.00256
       4     C     3.16435  3.16435  0.00000 -0.32870
       5     H     0.42972  0.42972  0.00000  0.14056
       6     H     0.41354  0.41354  0.00000  0.17292
       7     C     3.17064  3.17064  0.00000 -0.34127
       8     H     0.42223  0.42223  0.00000  0.15553
       9     H     0.41593  0.41593  0.00000  0.16813
      10     C     3.16669  3.16669  0.00000 -0.33338
      11     H     0.41495  0.41495  0.00000  0.17011
      12     H     0.42572  0.42572  0.00000  0.14855
      13     C     3.23777  3.23777  0.00000 -0.47554
      14     H     0.41008  0.41008  0.00000  0.17984
      15     H     0.42441  0.42441  0.00000  0.15117
      16     H     0.41886  0.41886  0.00000  0.16228
      17     H     0.41878  0.41878  0.00000  0.16244
      18     H     0.42383  0.42383  0.00000  0.15234

   Total alpha = 25.00000, Total beta = 25.00000, Total charge = -0.00000


*** PSI4 exiting successfully. Buy a developer a beer!
