    -----------------------------------------------------------------------
          Psi4: An Open-Source Ab Initio Electronic Structure Package
                              Psi4 (no tag) Driver

                          Git: Rev {detached?}  

    J. M. Turney, A. C. Simmonett, R. M. Parrish, E. G. Hohenstein,
    F. A. Evangelista, J. T. Fermann, B. J. Mintz, L. A. Burns, J. J. Wilke,
    M. L. Abrams, N. J. Russ, M. L. Leininger, C. L. Janssen, E. T. Seidl,
    W. D. Allen, H. F. Schaefer, R. A. King, E. F. Valeev, C. D. Sherrill,
    and T. D. Crawford, WIREs Comput. Mol. Sci. 2, 556-565 (2012)
    (doi: 10.1002/wcms.93)

                         Additional Contributions by
    A. E. DePrince, M. Saitow, U. Bozkaya, A. Yu. Sokolov
    -----------------------------------------------------------------------


    Psi4 started on: Tue Jul  5 17:25:48 2016

    Process ID:  19537
    PSI4DATADIR: /export131/home/mjharvey/miniconda3/share
    Memory level set to 256.000 MB

  ==> Input File <==

--------------------------------------------------------------------------
set {
	reference rhf
	basis 6-31G*
}


set_num_threads( 1 )
memory 2 gb

molecule MOL {
0 1

H	 -2.763904	 -0.046560	 -1.526607
O	 -3.452007	 0.283848	 -0.965577
C	 -3.181085	 -0.079926	 0.364119
C	 -1.765924	 0.277073	 0.805136
H	 -3.327791	 -1.152017	 0.410903
H	 -3.905698	 0.375695	 1.036898
C	 -0.677594	 -0.417312	 -0.014550
H	 -1.637766	 1.358238	 0.744969
H	 -1.659588	 0.017670	 1.857098
C	 -0.636515	 -1.931365	 0.202556
H	 0.286690	 0.014981	 0.234427
H	 -0.841928	 -0.208639	 -1.070411
C	 -2.019340	 -2.581843	 0.108972
H	 0.033343	 -2.375569	 -0.529832
H	 -0.205609	 -2.145527	 1.179827
C	 -2.989335	 -2.191157	 1.229968
H	 -1.906995	 -3.664819	 0.093554
H	 -2.467408	 -2.310741	 -0.844734
C	 -4.440244	 -2.613419	 0.991300
H	 -2.956848	 -1.111227	 1.352388
H	 -2.640555	 -2.612933	 2.170532
H	 -4.812308	 -2.216149	 0.050617
H	 -5.084614	 -2.243392	 1.782947
H	 -4.549920	 -3.692415	 0.961242

	symmetry c1
}
set optking {
	frozen_dihedral = ("
		20 16 13 17,
		17 13 10 7,
		13 10 7 11,
		11 7 4 3,
		7 4 3 2
	")
}

ee = energy('scf')
oeprop('DIPOLE', 'QUADRUPOLE', 'MULLIKEN_CHARGES')
f=open( 'psi4out.xyz', 'w' )
f.write( "24  " )
f.write( str(ee) + "\n" )
f.write( MOL.save_string_xyz() )
f.close()
--------------------------------------------------------------------------

  Memory set to   2.000 GiB by Python script.

*** tstart() called on cx1-1-3-2.cx1.hpc.ic.ac.uk
*** at Tue Jul  5 17:25:48 2016


         ---------------------------------------------------------
                                   SCF
            by Justin Turney, Rob Parrish, and Andy Simmonett
                              RHF Reference
                        1 Threads,   2000 MiB Core
         ---------------------------------------------------------

  ==> Geometry <==

    Molecular point group: c1
    Full point group: C1

    Geometry (in Angstrom), charge = 0, multiplicity = 1:

       Center              X                  Y                   Z               Mass       
    ------------   -----------------  -----------------  -----------------  -----------------
           H         -0.331278944678     1.091063080346    -1.843273547512     1.007825032070
           O         -1.019381944678     1.421471080346    -1.282243547512    15.994914619560
           C         -0.748459944678     1.057697080346     0.047452452488    12.000000000000
           C          0.666701055322     1.414696080346     0.488469452488    12.000000000000
           H         -0.895165944678    -0.014393919654     0.094236452488     1.007825032070
           H         -1.473072944678     1.513318080346     0.720231452488     1.007825032070
           C          1.755031055322     0.720311080346    -0.331216547512    12.000000000000
           H          0.794859055322     2.495861080346     0.428302452488     1.007825032070
           H          0.773037055322     1.155293080346     1.540431452488     1.007825032070
           C          1.796110055322    -0.793741919654    -0.114110547512    12.000000000000
           H          2.719315055322     1.152604080346    -0.082239547512     1.007825032070
           H          1.590697055322     0.928984080346    -1.387077547512     1.007825032070
           C          0.413285055322    -1.444219919654    -0.207694547512    12.000000000000
           H          2.465968055322    -1.237945919654    -0.846498547512     1.007825032070
           H          2.227016055322    -1.007903919654     0.863160452488     1.007825032070
           C         -0.556709944678    -1.053533919654     0.913301452488    12.000000000000
           H          0.525630055322    -2.527195919654    -0.223112547512     1.007825032070
           H         -0.034782944678    -1.173117919654    -1.161400547512     1.007825032070
           C         -2.007618944678    -1.475795919654     0.674633452488    12.000000000000
           H         -0.524222944678     0.026396080346     1.035721452488     1.007825032070
           H         -0.207929944678    -1.475309919654     1.853865452488     1.007825032070
           H         -2.379682944678    -1.078525919654    -0.266049547512     1.007825032070
           H         -2.651988944678    -1.105768919654     1.466280452488     1.007825032070
           H         -2.117294944678    -2.554791919654     0.644575452488     1.007825032070

  Running in c1 symmetry.

  Rotational constants: A =      0.07522  B =      0.06120  C =      0.04210 [cm^-1]
  Rotational constants: A =   2254.93153  B =   1834.64227  C =   1261.98480 [MHz]
  Nuclear repulsion =  437.474218100163114

  Charge       = 0
  Multiplicity = 1
  Electrons    = 66
  Nalpha       = 33
  Nbeta        = 33

  ==> Algorithm <==

  SCF Algorithm Type is DF.
  DIIS enabled.
  MOM disabled.
  Fractional occupation disabled.
  Guess Type is CORE.
  Energy threshold   = 1.00e-06
  Density threshold  = 1.00e-06
  Integral threshold = 0.00e+00

  ==> Primary Basis <==

  Basis Set: 6-31G*
    Number of shells: 80
    Number of basis function: 152
    Number of Cartesian functions: 152
    Spherical Harmonics?: false
    Max angular momentum: 2

  ==> Pre-Iterations <==

   -------------------------------------------------------
    Irrep   Nso     Nmo     Nalpha   Nbeta   Ndocc  Nsocc
   -------------------------------------------------------
     A        152     152       0       0       0       0
   -------------------------------------------------------
    Total     152     152      33      33      33       0
   -------------------------------------------------------

 OEINTS: Overlap, kinetic, potential, dipole, and quadrupole integrals
         stored in file 35.

  ==> Integral Setup <==

  ==> DFJK: Density-Fitted J/K Matrices <==

    J tasked:                  Yes
    K tasked:                  Yes
    wK tasked:                  No
    OpenMP threads:              1
    Integrals threads:           1
    Memory (MB):              1430
    Algorithm:                Core
    Integral Cache:           NONE
    Schwarz Cutoff:          1E-12
    Fitting Condition:       1E-12

   => Auxiliary Basis Set <=

  Basis Set: 
    Number of shells: 336
    Number of basis function: 1048
    Number of Cartesian functions: 1048
    Spherical Harmonics?: false
    Max angular momentum: 3

  Minimum eigenvalue in the overlap matrix is 2.2646719022E-03.
  Using Symmetric Orthogonalization.
  SCF Guess: Core (One-Electron) Hamiltonian.

  ==> Iterations <==

                           Total Energy        Delta E     RMS |[F,P]|

   @DF-RHF iter   1:  -269.13228464579885   -2.69132e+02   6.44342e-02 
   @DF-RHF iter   2:  -199.73848409224712    6.93938e+01   6.15611e-02 DIIS
   @DF-RHF iter   3:  -295.55793394468589   -9.58194e+01   4.40163e-02 DIIS
   @DF-RHF iter   4:  -289.55533361058639    6.00260e+00   6.08241e-02 DIIS
   @DF-RHF iter   5:  -348.47259746120648   -5.89173e+01   6.54093e-03 DIIS
   @DF-RHF iter   6:  -348.94450224103986   -4.71905e-01   2.62346e-03 DIIS
   @DF-RHF iter   7:  -349.01706909627029   -7.25669e-02   8.14678e-04 DIIS
   @DF-RHF iter   8:  -349.02576061944393   -8.69152e-03   2.01669e-04 DIIS
   @DF-RHF iter   9:  -349.02657158613732   -8.10967e-04   7.24450e-05 DIIS
   @DF-RHF iter  10:  -349.02665101856820   -7.94324e-05   2.38495e-05 DIIS
   @DF-RHF iter  11:  -349.02666419452117   -1.31760e-05   9.03019e-06 DIIS
   @DF-RHF iter  12:  -349.02666598470290   -1.79018e-06   2.36586e-06 DIIS
   @DF-RHF iter  13:  -349.02666613317427   -1.48471e-07   6.03409e-07 DIIS

  ==> Post-Iterations <==

    Orbital Energies (a.u.)
    -----------------------

    Doubly Occupied:                                                      

       1A    -20.533819     2A    -11.234583     3A    -11.225689  
       4A    -11.224060     5A    -11.223249     6A    -11.219963  
       7A    -11.214001     8A    -11.200825     9A     -1.347026  
      10A     -1.144551    11A     -1.055569    12A     -1.020003  
      13A     -0.936448    14A     -0.855665    15A     -0.834111  
      16A     -0.776763    17A     -0.727489    18A     -0.653806  
      19A     -0.633671    20A     -0.609058    21A     -0.599111  
      22A     -0.582040    23A     -0.568216    24A     -0.544282  
      25A     -0.532831    26A     -0.517984    27A     -0.516593  
      28A     -0.485342    29A     -0.469818    30A     -0.466407  
      31A     -0.450200    32A     -0.435309    33A     -0.342997  

    Virtual:                                                              

      34A      0.210149    35A      0.237068    36A      0.253037  
      37A      0.261950    38A      0.284784    39A      0.295682  
      40A      0.305046    41A      0.310234    42A      0.313293  
      43A      0.325584    44A      0.334051    45A      0.341474  
      46A      0.352850    47A      0.356322    48A      0.372538  
      49A      0.390215    50A      0.417046    51A      0.430739  
      52A      0.443932    53A      0.457586    54A      0.481161  
      55A      0.549140    56A      0.599573    57A      0.674259  
      58A      0.704300    59A      0.723752    60A      0.749144  
      61A      0.769104    62A      0.779199    63A      0.793325  
      64A      0.868606    65A      0.882834    66A      0.900485  
      67A      0.913029    68A      0.949644    69A      0.965722  
      70A      0.993056    71A      1.008596    72A      1.040690  
      73A      1.055342    74A      1.082279    75A      1.107757  
      76A      1.131408    77A      1.140205    78A      1.145762  
      79A      1.155410    80A      1.164403    81A      1.168058  
      82A      1.174077    83A      1.186989    84A      1.205660  
      85A      1.219147    86A      1.220818    87A      1.235957  
      88A      1.249507    89A      1.250640    90A      1.269994  
      91A      1.288039    92A      1.332879    93A      1.341178  
      94A      1.388484    95A      1.408080    96A      1.466321  
      97A      1.551894    98A      1.562863    99A      1.654807  
     100A      1.695154   101A      1.744199   102A      1.779587  
     103A      1.802692   104A      1.826143   105A      1.867323  
     106A      1.874670   107A      1.960864   108A      2.009575  
     109A      2.030849   110A      2.083114   111A      2.136025  
     112A      2.164968   113A      2.188215   114A      2.231645  
     115A      2.237265   116A      2.259307   117A      2.275301  
     118A      2.301164   119A      2.337345   120A      2.359698  
     121A      2.372083   122A      2.433798   123A      2.491884  
     124A      2.509549   125A      2.572277   126A      2.602913  
     127A      2.629988   128A      2.643509   129A      2.667937  
     130A      2.687708   131A      2.721300   132A      2.739609  
     133A      2.770338   134A      2.798132   135A      2.816751  
     136A      2.870345   137A      2.937658   138A      2.975371  
     139A      2.991758   140A      3.025255   141A      3.075615  
     142A      3.120590   143A      3.132985   144A      3.310585  
     145A      4.330226   146A      4.574751   147A      4.687475  
     148A      4.759869   149A      4.833563   150A      4.933911  
     151A      5.032187   152A      5.106013  

    Final Occupation by Irrep:
              A 
    DOCC [    33 ]

  Energy converged.

  @DF-RHF Final Energy:  -349.02666613317427

   => Energetics <=

    Nuclear Repulsion Energy =            437.4742181001631138
    One-Electron Energy =               -1340.6385868103670873
    Two-Electron Energy =                 554.1377025770298133
    DFT Exchange-Correlation Energy =       0.0000000000000000
    Empirical Dispersion Energy =           0.0000000000000000
    PCM Polarization Energy =               0.0000000000000000
    EFP Energy =                            0.0000000000000000
    Total Energy =                       -349.0266661331741034

    Alert: EFP and PCM quantities not currently incorporated into SCF psivars.

Properties will be evaluated at   0.000000,   0.000000,   0.000000 Bohr
  ==> Properties <==


Properties computed using the SCF density matrix

  Nuclear Dipole Moment: (a.u.)
     X:     0.4461      Y:    -3.5663      Z:     2.6536

  Electronic Dipole Moment: (a.u.)
     X:     0.1987      Y:     3.1277      Z:    -2.3619

  Dipole Moment: (a.u.)
     X:     0.6448      Y:    -0.4386      Z:     0.2916     Total:     0.8326

  Dipole Moment: (Debye)
     X:     1.6390      Y:    -1.1147      Z:     0.7413     Total:     2.1162


  Saving occupied orbitals to File 180.

*** tstop() called on cx1-1-3-2.cx1.hpc.ic.ac.uk at Tue Jul  5 17:26:09 2016
Module time:
	user time   =      20.51 seconds =       0.34 minutes
	system time =       0.21 seconds =       0.00 minutes
	total time  =         21 seconds =       0.35 minutes
Total time:
	user time   =      20.51 seconds =       0.34 minutes
	system time =       0.21 seconds =       0.00 minutes
	total time  =         21 seconds =       0.35 minutes


Properties will be evaluated at   0.000000,   0.000000,   0.000000 Bohr

Properties computed using the  density matrix

  Nuclear Dipole Moment: (a.u.)
     X:     0.4461      Y:    -3.5663      Z:     2.6536

  Electronic Dipole Moment: (a.u.)
     X:     0.1987      Y:     3.1277      Z:    -2.3619

  Dipole Moment: (a.u.)
     X:     0.6448      Y:    -0.4386      Z:     0.2916     Total:     0.8326

  Dipole Moment: (Debye)
     X:     1.6390      Y:    -1.1147      Z:     0.7413     Total:     2.1162

  Quadrupole Moment: (Debye Ang)
    XX:   -55.2223     YY:   -56.1259     ZZ:   -53.3621
    XY:     2.9727     XZ:    -3.5353     YZ:     3.2132

  Traceless Quadrupole Moment: (Debye Ang)
    XX:    -0.3189     YY:    -1.2225     ZZ:     1.5414
    XY:     2.9727     XZ:    -3.5353     YZ:     3.2132

  Mulliken Charges: (a.u.)
   Center  Symbol    Alpha    Beta     Spin     Total
       1     H     0.28005  0.28005  0.00000  0.43990
       2     O     4.38973  4.38973  0.00000 -0.77947
       3     C     3.03529  3.03529  0.00000 -0.07058
       4     C     3.19772  3.19772  0.00000 -0.39545
       5     H     0.38420  0.38420  0.00000  0.23159
       6     H     0.40863  0.40863  0.00000  0.18275
       7     C     3.15988  3.15988  0.00000 -0.31976
       8     H     0.40528  0.40528  0.00000  0.18943
       9     H     0.40870  0.40870  0.00000  0.18260
      10     C     3.14934  3.14934  0.00000 -0.29869
      11     H     0.41270  0.41270  0.00000  0.17460
      12     H     0.42962  0.42962  0.00000  0.14077
      13     C     3.17573  3.17573  0.00000 -0.35145
      14     H     0.41707  0.41707  0.00000  0.16587
      15     H     0.41942  0.41942  0.00000  0.16115
      16     C     3.21795  3.21795  0.00000 -0.43590
      17     H     0.40964  0.40964  0.00000  0.18072
      18     H     0.41871  0.41871  0.00000  0.16257
      19     C     3.25118  3.25118  0.00000 -0.50237
      20     H     0.37506  0.37506  0.00000  0.24988
      21     H     0.42221  0.42221  0.00000  0.15557
      22     H     0.40394  0.40394  0.00000  0.19212
      23     H     0.41442  0.41442  0.00000  0.17117
      24     H     0.41352  0.41352  0.00000  0.17296

   Total alpha = 33.00000, Total beta = 33.00000, Total charge =  0.00000


*** PSI4 exiting successfully. Buy a developer a beer!
