    -----------------------------------------------------------------------
          Psi4: An Open-Source Ab Initio Electronic Structure Package
                              Psi4 (no tag) Driver

                          Git: Rev {detached?}  

    J. M. Turney, A. C. Simmonett, R. M. Parrish, E. G. Hohenstein,
    F. A. Evangelista, J. T. Fermann, B. J. Mintz, L. A. Burns, J. J. Wilke,
    M. L. Abrams, N. J. Russ, M. L. Leininger, C. L. Janssen, E. T. Seidl,
    W. D. Allen, H. F. Schaefer, R. A. King, E. F. Valeev, C. D. Sherrill,
    and T. D. Crawford, WIREs Comput. Mol. Sci. 2, 556-565 (2012)
    (doi: 10.1002/wcms.93)

                         Additional Contributions by
    A. E. DePrince, M. Saitow, U. Bozkaya, A. Yu. Sokolov
    -----------------------------------------------------------------------


    Psi4 started on: Tue Jul  5 16:50:28 2016

    Process ID:  27466
    PSI4DATADIR: /export131/home/mjharvey/miniconda3/share
    Memory level set to 256.000 MB

  ==> Input File <==

--------------------------------------------------------------------------
set {
	reference rhf
	basis 6-31G*
}


set_num_threads( 1 )
memory 2 gb

molecule MOL {
0 1

H	 0.784333	 3.366818	 -1.564362
O	 1.512923	 2.896223	 -1.183053
C	 1.105816	 1.744130	 -0.613735
C	 2.077863	 0.950166	 -0.013163
C	 -0.215698	 1.341975	 -0.611066
H	 3.098047	 1.284603	 -0.028483
C	 1.723877	 -0.240731	 0.586440
H	 -0.985129	 1.933861	 -1.066227
C	 -0.536158	 0.140425	 0.000000
H	 2.480766	 -0.847504	 1.047746
C	 0.402498	 -0.666813	 0.602361
N	 -1.935604	 -0.280333	 0.000000
H	 0.112487	 -1.588037	 1.063496
O	 -2.161694	 -1.452901	 0.000000
O	 -2.770341	 0.571417	 0.000000

	symmetry c1
}
set optking {
	frozen_dihedral = ("
		4 3 2 1
	")
}

ee = energy('scf')
oeprop('DIPOLE', 'QUADRUPOLE', 'MULLIKEN_CHARGES')
f=open( 'psi4out.xyz', 'w' )
f.write( "15  " )
f.write( str(ee) + "\n" )
f.write( MOL.save_string_xyz() )
f.close()
--------------------------------------------------------------------------

  Memory set to   2.000 GiB by Python script.

*** tstart() called on cx1-1-4-3.cx1.hpc.ic.ac.uk
*** at Tue Jul  5 16:50:28 2016


         ---------------------------------------------------------
                                   SCF
            by Justin Turney, Rob Parrish, and Andy Simmonett
                              RHF Reference
                        1 Threads,   2000 MiB Core
         ---------------------------------------------------------

  ==> Geometry <==

    Molecular point group: c1
    Full point group: C1

    Geometry (in Angstrom), charge = 0, multiplicity = 1:

       Center              X                  Y                   Z               Mass       
    ------------   -----------------  -----------------  -----------------  -----------------
           H          0.939417811130     2.851003656122    -1.420038143945     1.007825032070
           O          1.668007811130     2.380408656122    -1.038729143945    15.994914619560
           C          1.260900811130     1.228315656122    -0.469411143945    12.000000000000
           C          2.232947811130     0.434351656122     0.131160856055    12.000000000000
           C         -0.060613188870     0.826160656122    -0.466742143945    12.000000000000
           H          3.253131811130     0.768788656122     0.115840856055     1.007825032070
           C          1.878961811130    -0.756545343878     0.730763856055    12.000000000000
           H         -0.830044188870     1.418046656122    -0.921903143945     1.007825032070
           C         -0.381073188870    -0.375389343878     0.144323856055    12.000000000000
           H          2.635850811130    -1.363318343878     1.192069856055     1.007825032070
           C          0.557582811130    -1.182627343878     0.746684856055    12.000000000000
           N         -1.780519188870    -0.796147343878     0.144323856055    14.003074004780
           H          0.267571811130    -2.103851343878     1.207819856055     1.007825032070
           O         -2.006609188870    -1.968715343878     0.144323856055    15.994914619560
           O         -2.615256188870     0.055602656122     0.144323856055    15.994914619560

  Running in c1 symmetry.

  Rotational constants: A =      0.09304  B =      0.03301  C =      0.02491 [cm^-1]
  Rotational constants: A =   2789.15823  B =    989.74886  C =    746.83524 [MHz]
  Nuclear repulsion =  503.031093315475687

  Charge       = 0
  Multiplicity = 1
  Electrons    = 72
  Nalpha       = 36
  Nbeta        = 36

  ==> Algorithm <==

  SCF Algorithm Type is DF.
  DIIS enabled.
  MOM disabled.
  Fractional occupation disabled.
  Guess Type is CORE.
  Energy threshold   = 1.00e-06
  Density threshold  = 1.00e-06
  Integral threshold = 0.00e+00

  ==> Primary Basis <==

  Basis Set: 6-31G*
    Number of shells: 70
    Number of basis function: 160
    Number of Cartesian functions: 160
    Spherical Harmonics?: false
    Max angular momentum: 2

  ==> Pre-Iterations <==

   -------------------------------------------------------
    Irrep   Nso     Nmo     Nalpha   Nbeta   Ndocc  Nsocc
   -------------------------------------------------------
     A        160     160       0       0       0       0
   -------------------------------------------------------
    Total     160     160      36      36      36       0
   -------------------------------------------------------

 OEINTS: Overlap, kinetic, potential, dipole, and quadrupole integrals
         stored in file 35.

  ==> Integral Setup <==

  ==> DFJK: Density-Fitted J/K Matrices <==

    J tasked:                  Yes
    K tasked:                  Yes
    wK tasked:                  No
    OpenMP threads:              1
    Integrals threads:           1
    Memory (MB):              1430
    Algorithm:                Core
    Integral Cache:           NONE
    Schwarz Cutoff:          1E-12
    Fitting Condition:       1E-12

   => Auxiliary Basis Set <=

  Basis Set: 
    Number of shells: 285
    Number of basis function: 935
    Number of Cartesian functions: 935
    Spherical Harmonics?: false
    Max angular momentum: 3

  Minimum eigenvalue in the overlap matrix is 4.1978516369E-04.
  Using Symmetric Orthogonalization.
  SCF Guess: Core (One-Electron) Hamiltonian.

  ==> Iterations <==

                           Total Energy        Delta E     RMS |[F,P]|

   @DF-RHF iter   1:  -421.65295015511322   -4.21653e+02   6.02419e-02 
   @DF-RHF iter   2:  -309.02568374912141    1.12627e+02   5.74518e-02 DIIS
   @DF-RHF iter   3:  -327.62498320460600   -1.85993e+01   7.18021e-02 DIIS
   @DF-RHF iter   4:  -492.31021529568022   -1.64685e+02   2.44281e-02 DIIS
   @DF-RHF iter   5:  -483.53979130494758    8.77042e+00   3.74474e-02 DIIS
   @DF-RHF iter   6:  -507.31784580076317   -2.37781e+01   1.08098e-02 DIIS
   @DF-RHF iter   7:  -508.65535088319325   -1.33751e+00   4.68913e-03 DIIS
   @DF-RHF iter   8:  -508.90503775295213   -2.49687e-01   2.47677e-03 DIIS
   @DF-RHF iter   9:  -509.01715899264730   -1.12121e-01   6.65448e-04 DIIS
   @DF-RHF iter  10:  -509.02398477099553   -6.82578e-03   2.65293e-04 DIIS
   @DF-RHF iter  11:  -509.02546856329036   -1.48379e-03   1.07353e-04 DIIS
   @DF-RHF iter  12:  -509.02576620623540   -2.97643e-04   6.63464e-05 DIIS
   @DF-RHF iter  13:  -509.02589356989677   -1.27364e-04   2.67986e-05 DIIS
   @DF-RHF iter  14:  -509.02592737301291   -3.38031e-05   9.43064e-06 DIIS
   @DF-RHF iter  15:  -509.02593306913820   -5.69613e-06   3.84522e-06 DIIS
   @DF-RHF iter  16:  -509.02593406570463   -9.96566e-07   1.52119e-06 DIIS
   @DF-RHF iter  17:  -509.02593418983383   -1.24129e-07   5.07554e-07 DIIS

  ==> Post-Iterations <==

    Orbital Energies (a.u.)
    -----------------------

    Doubly Occupied:                                                      

       1A    -20.616617     2A    -20.606274     3A    -20.605690  
       4A    -15.859123     5A    -11.331705     6A    -11.313471  
       7A    -11.268591     8A    -11.267718     9A    -11.264391  
      10A    -11.259733    11A     -1.638688    12A     -1.437242  
      13A     -1.421454    14A     -1.201280    15A     -1.095510  
      16A     -1.047593    17A     -0.966403    18A     -0.880535  
      19A     -0.829127    20A     -0.789968    21A     -0.756506  
      22A     -0.734896    23A     -0.721504    24A     -0.710125  
      25A     -0.672008    26A     -0.635546    27A     -0.616715  
      28A     -0.594515    29A     -0.560683    30A     -0.546786  
      31A     -0.521005    32A     -0.491477    33A     -0.489410  
      34A     -0.453552    35A     -0.376556    36A     -0.343510  

    Virtual:                                                              

      37A      0.064942    38A      0.126545    39A      0.170152  
      40A      0.203128    41A      0.226875    42A      0.290716  
      43A      0.296004    44A      0.319855    45A      0.351466  
      46A      0.379214    47A      0.425993    48A      0.442490  
      49A      0.448650    50A      0.518872    51A      0.541514  
      52A      0.547728    53A      0.602483    54A      0.675497  
      55A      0.684390    56A      0.707916    57A      0.714331  
      58A      0.750620    59A      0.787253    60A      0.796316  
      61A      0.799302    62A      0.810958    63A      0.826847  
      64A      0.869427    65A      0.875939    66A      0.880009  
      67A      0.885904    68A      0.940323    69A      0.976989  
      70A      0.979375    71A      0.985571    72A      1.031450  
      73A      1.046396    74A      1.075212    75A      1.087859  
      76A      1.093081    77A      1.130817    78A      1.145250  
      79A      1.164532    80A      1.174150    81A      1.201334  
      82A      1.214944    83A      1.225971    84A      1.232988  
      85A      1.284487    86A      1.295692    87A      1.306973  
      88A      1.328487    89A      1.381252    90A      1.390532  
      91A      1.403555    92A      1.429309    93A      1.451971  
      94A      1.484137    95A      1.540654    96A      1.598074  
      97A      1.605602    98A      1.646611    99A      1.672958  
     100A      1.711489   101A      1.718479   102A      1.726866  
     103A      1.739015   104A      1.753273   105A      1.915711  
     106A      1.936397   107A      1.999938   108A      2.010651  
     109A      2.029513   110A      2.061427   111A      2.082576  
     112A      2.110394   113A      2.120840   114A      2.178601  
     115A      2.219665   116A      2.223972   117A      2.244391  
     118A      2.260941   119A      2.273916   120A      2.286506  
     121A      2.370644   122A      2.390968   123A      2.416842  
     124A      2.427071   125A      2.456600   126A      2.476730  
     127A      2.551736   128A      2.573048   129A      2.609423  
     130A      2.616463   131A      2.738038   132A      2.758889  
     133A      2.788641   134A      2.825601   135A      2.895935  
     136A      2.920753   137A      2.978339   138A      2.994034  
     139A      3.002199   140A      3.073845   141A      3.087610  
     142A      3.126229   143A      3.163180   144A      3.225821  
     145A      3.283184   146A      3.295061   147A      3.396014  
     148A      3.489091   149A      3.579970   150A      3.831302  
     151A      4.133168   152A      4.265994   153A      4.322321  
     154A      4.366561   155A      4.504294   156A      4.534890  
     157A      4.613970   158A      4.758326   159A      4.867181  
     160A      5.158376  

    Final Occupation by Irrep:
              A 
    DOCC [    36 ]

  Energy converged.

  @DF-RHF Final Energy:  -509.02593418983383

   => Energetics <=

    Nuclear Repulsion Energy =            503.0310933154756867
    One-Electron Energy =               -1692.2620853052321763
    Two-Electron Energy =                 680.2050577999227698
    DFT Exchange-Correlation Energy =       0.0000000000000000
    Empirical Dispersion Energy =           0.0000000000000000
    PCM Polarization Energy =               0.0000000000000000
    EFP Energy =                            0.0000000000000000
    Total Energy =                       -509.0259341898338334

    Alert: EFP and PCM quantities not currently incorporated into SCF psivars.

Properties will be evaluated at   0.000000,   0.000000,   0.000000 Bohr
  ==> Properties <==


Properties computed using the SCF density matrix

  Nuclear Dipole Moment: (a.u.)
     X:     5.8651      Y:     1.4770      Z:     0.1589

  Electronic Dipole Moment: (a.u.)
     X:    -4.5451      Y:    -0.8725      Z:    -0.2759

  Dipole Moment: (a.u.)
     X:     1.3200      Y:     0.6045      Z:    -0.1170     Total:     1.4565

  Dipole Moment: (Debye)
     X:     3.3550      Y:     1.5365      Z:    -0.2973     Total:     3.7021


  Saving occupied orbitals to File 180.

*** tstop() called on cx1-1-4-3.cx1.hpc.ic.ac.uk at Tue Jul  5 16:50:51 2016
Module time:
	user time   =      22.23 seconds =       0.37 minutes
	system time =       0.27 seconds =       0.00 minutes
	total time  =         23 seconds =       0.38 minutes
Total time:
	user time   =      22.23 seconds =       0.37 minutes
	system time =       0.27 seconds =       0.00 minutes
	total time  =         23 seconds =       0.38 minutes


Properties will be evaluated at   0.000000,   0.000000,   0.000000 Bohr

Properties computed using the  density matrix

  Nuclear Dipole Moment: (a.u.)
     X:     5.8651      Y:     1.4770      Z:     0.1589

  Electronic Dipole Moment: (a.u.)
     X:    -4.5451      Y:    -0.8725      Z:    -0.2759

  Dipole Moment: (a.u.)
     X:     1.3200      Y:     0.6045      Z:    -0.1170     Total:     1.4565

  Dipole Moment: (Debye)
     X:     3.3550      Y:     1.5365      Z:    -0.2973     Total:     3.7021

  Quadrupole Moment: (Debye Ang)
    XX:   -65.0503     YY:   -55.3513     ZZ:   -54.3314
    XY:    -7.5043     XZ:     3.8395     YZ:    -5.5334

  Traceless Quadrupole Moment: (Debye Ang)
    XX:    -6.8060     YY:     2.8930     ZZ:     3.9129
    XY:    -7.5043     XZ:     3.8395     YZ:    -5.5334

  Mulliken Charges: (a.u.)
   Center  Symbol    Alpha    Beta     Spin     Total
       1     H     0.26735  0.26735  0.00000  0.46530
       2     O     4.37525  4.37525  0.00000 -0.75050
       3     C     2.79297  2.79297  0.00000  0.41406
       4     C     3.11004  3.11004  0.00000 -0.22008
       5     C     3.13524  3.13524  0.00000 -0.27047
       6     H     0.38108  0.38108  0.00000  0.23783
       7     C     3.10000  3.10000  0.00000 -0.20000
       8     H     0.37266  0.37266  0.00000  0.25468
       9     C     2.90292  2.90292  0.00000  0.19415
      10     H     0.38642  0.38642  0.00000  0.22715
      11     C     3.09774  3.09774  0.00000 -0.19548
      12     N     3.25276  3.25276  0.00000  0.49448
      13     H     0.36942  0.36942  0.00000  0.26115
      14     O     4.22718  4.22718  0.00000 -0.45436
      15     O     4.22896  4.22896  0.00000 -0.45792

   Total alpha = 36.00000, Total beta = 36.00000, Total charge = -0.00000


*** PSI4 exiting successfully. Buy a developer a beer!
