    -----------------------------------------------------------------------
          Psi4: An Open-Source Ab Initio Electronic Structure Package
                              Psi4 (no tag) Driver

                          Git: Rev {detached?}  

    J. M. Turney, A. C. Simmonett, R. M. Parrish, E. G. Hohenstein,
    F. A. Evangelista, J. T. Fermann, B. J. Mintz, L. A. Burns, J. J. Wilke,
    M. L. Abrams, N. J. Russ, M. L. Leininger, C. L. Janssen, E. T. Seidl,
    W. D. Allen, H. F. Schaefer, R. A. King, E. F. Valeev, C. D. Sherrill,
    and T. D. Crawford, WIREs Comput. Mol. Sci. 2, 556-565 (2012)
    (doi: 10.1002/wcms.93)

                         Additional Contributions by
    A. E. DePrince, M. Saitow, U. Bozkaya, A. Yu. Sokolov
    -----------------------------------------------------------------------


    Psi4 started on: Tue Jul 26 13:30:19 2016

    Process ID:  10799
    PSI4DATADIR: /export131/home/mjharvey/miniconda3/share
    Memory level set to 256.000 MB

  ==> Input File <==

--------------------------------------------------------------------------
set {
	reference rhf
	basis 6-31G*
}


set_num_threads( 24 )
memory 2 gb

molecule MOL {
0 1

H	 -4.000821	 0.509242	 -0.600504
C	 -3.223418	 0.112041	 0.022916
C	 -2.081892	 -0.257315	 -0.509986
H	 -3.405057	 0.026595	 1.078504
O	 -1.081000	 -0.797000	 0.234000
H	 -1.878740	 -0.173687	 -1.562585
C	 0.151000	 -0.997000	 -0.369000
C	 1.143000	 0.077000	 0.017000
H	 0.082000	 -1.019000	 -1.451000
H	 0.537000	 -1.944000	 -0.023000
F	 0.942633	 0.429544	 1.278564
F	 2.391066	 -0.347800	 -0.086844
F	 1.021272	 1.154467	 -0.729697

	symmetry c1
}
set optking {
	frozen_dihedral = ("
		11 8 7 9,
		6 3 2 1,
		6 3 5 7
	")
}

ee = energy('scf')
oeprop('DIPOLE', 'QUADRUPOLE', 'MULLIKEN_CHARGES')
f=open( 'psi4out.xyz', 'w' )
f.write( "13  " )
f.write( str(ee) + "\n" )
f.write( MOL.save_string_xyz() )
f.close()
--------------------------------------------------------------------------

  Memory set to   2.000 GiB by Python script.

*** tstart() called on cx1b.hpc.ic.ac.uk
*** at Tue Jul 26 13:30:19 2016


         ---------------------------------------------------------
                                   SCF
            by Justin Turney, Rob Parrish, and Andy Simmonett
                              RHF Reference
                       24 Threads,   2000 MiB Core
         ---------------------------------------------------------

  ==> Geometry <==

    Molecular point group: c1
    Full point group: C1

    Geometry (in Angstrom), charge = 0, multiplicity = 1:

       Center              X                  Y                   Z               Mass       
    ------------   -----------------  -----------------  -----------------  -----------------
           H         -4.068883340144     0.546268338400    -0.599496799398     1.007825032070
           C         -3.291480340144     0.149067338400     0.023923200602    12.000000000000
           C         -2.149954340144    -0.220288661600    -0.508978799398    12.000000000000
           H         -3.473119340144     0.063621338400     1.079511200602     1.007825032070
           O         -1.149062340144    -0.759973661600     0.235007200602    15.994914619560
           H         -1.946802340144    -0.136660661600    -1.561577799398     1.007825032070
           C          0.082937659856    -0.959973661600    -0.367992799398    12.000000000000
           C          1.074937659856     0.114026338400     0.018007200602    12.000000000000
           H          0.013937659856    -0.981973661600    -1.449992799398     1.007825032070
           H          0.468937659856    -1.906973661600    -0.021992799398     1.007825032070
           F          0.874570659856     0.466570338400     1.279571200602    18.998403224000
           F          2.323003659856    -0.310773661600    -0.085836799398    18.998403224000
           F          0.953209659856     1.191493338400    -0.728689799398    18.998403224000

  Running in c1 symmetry.

  Rotational constants: A =      0.15387  B =      0.03809  C =      0.03763 [cm^-1]
  Rotational constants: A =   4612.86242  B =   1142.05224  C =   1128.17236 [MHz]
  Nuclear repulsion =  411.410123587319617

  Charge       = 0
  Multiplicity = 1
  Electrons    = 64
  Nalpha       = 32
  Nbeta        = 32

  ==> Algorithm <==

  SCF Algorithm Type is DF.
  DIIS enabled.
  MOM disabled.
  Fractional occupation disabled.
  Guess Type is CORE.
  Energy threshold   = 1.00e-06
  Density threshold  = 1.00e-06
  Integral threshold = 0.00e+00

  ==> Primary Basis <==

  Basis Set: 6-31G*
    Number of shells: 58
    Number of basis function: 130
    Number of Cartesian functions: 130
    Spherical Harmonics?: false
    Max angular momentum: 2

  ==> Pre-Iterations <==

   -------------------------------------------------------
    Irrep   Nso     Nmo     Nalpha   Nbeta   Ndocc  Nsocc
   -------------------------------------------------------
     A        130     130       0       0       0       0
   -------------------------------------------------------
    Total     130     130      32      32      32       0
   -------------------------------------------------------

 OEINTS: Overlap, kinetic, potential, dipole, and quadrupole integrals
         stored in file 35.

  ==> Integral Setup <==

  ==> DFJK: Density-Fitted J/K Matrices <==

    J tasked:                  Yes
    K tasked:                  Yes
    wK tasked:                  No
    OpenMP threads:             24
    Integrals threads:          24
    Memory (MB):              1430
    Algorithm:                Core
    Integral Cache:           NONE
    Schwarz Cutoff:          1E-12
    Fitting Condition:       1E-12

   => Auxiliary Basis Set <=

  Basis Set: 
    Number of shells: 237
    Number of basis function: 773
    Number of Cartesian functions: 773
    Spherical Harmonics?: false
    Max angular momentum: 3

  Minimum eigenvalue in the overlap matrix is 1.8464582597E-03.
  Using Symmetric Orthogonalization.
  SCF Guess: Core (One-Electron) Hamiltonian.

  ==> Iterations <==

                           Total Energy        Delta E     RMS |[F,P]|

   @DF-RHF iter   1:  -439.67191556010471   -4.39672e+02   7.41112e-02 
   @DF-RHF iter   2:  -173.07753187521564    2.66594e+02   9.79452e-02 DIIS
   @DF-RHF iter   3:  -490.97313872740767   -3.17896e+02   3.88011e-02 DIIS
   @DF-RHF iter   4:  -391.55585974701660    9.94173e+01   7.14473e-02 DIIS
   @DF-RHF iter   5:  -519.88642197088575   -1.28331e+02   2.06493e-02 DIIS
   @DF-RHF iter   6:  -526.73947270376243   -6.85305e+00   1.03289e-02 DIIS
   @DF-RHF iter   7:  -527.47567357798596   -7.36201e-01   2.37371e-03 DIIS
   @DF-RHF iter   8:  -527.51160800345815   -3.59344e-02   1.33643e-03 DIIS
   @DF-RHF iter   9:  -527.52679342805345   -1.51854e-02   6.68422e-04 DIIS
   @DF-RHF iter  10:  -527.53102727642511   -4.23385e-03   2.93062e-04 DIIS
   @DF-RHF iter  11:  -527.53210504662354   -1.07777e-03   5.55253e-05 DIIS
   @DF-RHF iter  12:  -527.53214463709980   -3.95905e-05   2.24933e-05 DIIS
   @DF-RHF iter  13:  -527.53215176557671   -7.12848e-06   8.12045e-06 DIIS
   @DF-RHF iter  14:  -527.53215287266039   -1.10708e-06   2.25448e-06 DIIS
   @DF-RHF iter  15:  -527.53215298810267   -1.15442e-07   7.82980e-07 DIIS

  ==> Post-Iterations <==

    Orbital Energies (a.u.)
    -----------------------

    Doubly Occupied:                                                      

       1A    -26.345060     2A    -26.344084     3A    -26.332634  
       4A    -20.608374     5A    -11.501946     6A    -11.317963  
       7A    -11.300788     8A    -11.216763     9A     -1.740204  
      10A     -1.641238    11A     -1.632338    12A     -1.438163  
      13A     -1.084706    14A     -1.016464    15A     -0.923660  
      16A     -0.834168    17A     -0.830084    18A     -0.816053  
      19A     -0.798508    20A     -0.719304    21A     -0.712342  
      22A     -0.695016    23A     -0.676405    24A     -0.658770  
      25A     -0.653541    26A     -0.640683    27A     -0.630741  
      28A     -0.579647    29A     -0.563231    30A     -0.523920  
      31A     -0.517025    32A     -0.352068  

    Virtual:                                                              

      33A      0.191605    34A      0.228748    35A      0.270640  
      36A      0.274976    37A      0.294425    38A      0.321180  
      39A      0.340972    40A      0.407870    41A      0.420052  
      42A      0.455852    43A      0.478472    44A      0.508175  
      45A      0.525830    46A      0.687624    47A      0.701267  
      48A      0.710690    49A      0.744613    50A      0.751231  
      51A      0.774283    52A      0.810111    53A      0.831144  
      54A      0.880326    55A      0.914737    56A      0.928535  
      57A      0.968205    58A      1.076715    59A      1.101290  
      60A      1.123897    61A      1.141162    62A      1.155945  
      63A      1.204047    64A      1.234870    65A      1.256512  
      66A      1.334515    67A      1.346213    68A      1.361642  
      69A      1.398587    70A      1.433773    71A      1.458239  
      72A      1.476784    73A      1.583626    74A      1.611767  
      75A      1.628468    76A      1.636559    77A      1.668045  
      78A      1.676265    79A      1.685474    80A      1.714645  
      81A      1.755715    82A      1.778372    83A      1.877372  
      84A      1.907435    85A      1.933844    86A      1.990198  
      87A      2.013511    88A      2.026073    89A      2.115876  
      90A      2.129278    91A      2.144015    92A      2.150856  
      93A      2.223700    94A      2.260149    95A      2.285003  
      96A      2.291708    97A      2.311937    98A      2.316768  
      99A      2.362377   100A      2.396093   101A      2.410342  
     102A      2.417350   103A      2.486953   104A      2.510800  
     105A      2.580456   106A      2.589151   107A      2.623764  
     108A      2.654990   109A      2.754349   110A      2.837071  
     111A      2.869712   112A      2.894659   113A      2.986068  
     114A      3.089109   115A      3.161771   116A      3.182388  
     117A      3.212099   118A      3.307665   119A      3.413961  
     120A      3.424327   121A      3.449548   122A      3.467329  
     123A      4.342653   124A      4.547228   125A      4.628242  
     126A      4.701039   127A      4.863510   128A      4.944733  
     129A      5.106787   130A      5.749736  

    Final Occupation by Irrep:
              A 
    DOCC [    32 ]

  Energy converged.

  @DF-RHF Final Energy:  -527.53215298810267

   => Energetics <=

    Nuclear Repulsion Energy =            411.4101235873196174
    One-Electron Energy =               -1546.5927992505753537
    Two-Electron Energy =                 607.6505226751532973
    DFT Exchange-Correlation Energy =       0.0000000000000000
    Empirical Dispersion Energy =           0.0000000000000000
    PCM Polarization Energy =               0.0000000000000000
    EFP Energy =                            0.0000000000000000
    Total Energy =                       -527.5321529881025526

    Alert: EFP and PCM quantities not currently incorporated into SCF psivars.

Properties will be evaluated at   0.000000,   0.000000,   0.000000 Bohr
  ==> Properties <==


Properties computed using the SCF density matrix

  Nuclear Dipole Moment: (a.u.)
     X:   -12.3640      Y:    -3.5393      Z:    -2.8314

  Electronic Dipole Moment: (a.u.)
     X:    12.0814      Y:     3.0560      Z:     2.0437

  Dipole Moment: (a.u.)
     X:    -0.2826      Y:    -0.4832      Z:    -0.7877     Total:     0.9664

  Dipole Moment: (Debye)
     X:    -0.7182      Y:    -1.2283      Z:    -2.0022     Total:     2.4563


  Saving occupied orbitals to File 180.

*** tstop() called on cx1b.hpc.ic.ac.uk at Tue Jul 26 13:30:26 2016
Module time:
	user time   =      74.61 seconds =       1.24 minutes
	system time =       2.99 seconds =       0.05 minutes
	total time  =          7 seconds =       0.12 minutes
Total time:
	user time   =      74.61 seconds =       1.24 minutes
	system time =       2.99 seconds =       0.05 minutes
	total time  =          7 seconds =       0.12 minutes


Properties will be evaluated at   0.000000,   0.000000,   0.000000 Bohr

Properties computed using the  density matrix

  Nuclear Dipole Moment: (a.u.)
     X:   -12.3640      Y:    -3.5393      Z:    -2.8314

  Electronic Dipole Moment: (a.u.)
     X:    12.0814      Y:     3.0560      Z:     2.0437

  Dipole Moment: (a.u.)
     X:    -0.2826      Y:    -0.4832      Z:    -0.7877     Total:     0.9664

  Dipole Moment: (Debye)
     X:    -0.7182      Y:    -1.2283      Z:    -2.0022     Total:     2.4563

  Quadrupole Moment: (Debye Ang)
    XX:   -45.2371     YY:   -44.9306     ZZ:   -43.0539
    XY:    -2.6206     XZ:     1.2944     YZ:     1.0600

  Traceless Quadrupole Moment: (Debye Ang)
    XX:    -0.8299     YY:    -0.5234     ZZ:     1.3533
    XY:    -2.6206     XZ:     1.2944     YZ:     1.0600

  Mulliken Charges: (a.u.)
   Center  Symbol    Alpha    Beta     Spin     Total
       1     H     0.40714  0.40714  0.00000  0.18572
       2     C     3.23506  3.23506  0.00000 -0.47012
       3     C     2.89746  2.89746  0.00000  0.20509
       4     H     0.40089  0.40089  0.00000  0.19822
       5     O     4.29855  4.29855  0.00000 -0.59711
       6     H     0.40729  0.40729  0.00000  0.18541
       7     C     3.06616  3.06616  0.00000 -0.13232
       8     C     2.45266  2.45266  0.00000  1.09468
       9     H     0.40598  0.40598  0.00000  0.18805
      10     H     0.39222  0.39222  0.00000  0.21555
      11     F     4.67840  4.67840  0.00000 -0.35680
      12     F     4.68100  4.68100  0.00000 -0.36200
      13     F     4.67719  4.67719  0.00000 -0.35438

   Total alpha = 32.00000, Total beta = 32.00000, Total charge =  0.00000


*** PSI4 exiting successfully. Buy a developer a beer!
