    -----------------------------------------------------------------------
          Psi4: An Open-Source Ab Initio Electronic Structure Package
                              Psi4 (no tag) Driver

                          Git: Rev {detached?}  

    J. M. Turney, A. C. Simmonett, R. M. Parrish, E. G. Hohenstein,
    F. A. Evangelista, J. T. Fermann, B. J. Mintz, L. A. Burns, J. J. Wilke,
    M. L. Abrams, N. J. Russ, M. L. Leininger, C. L. Janssen, E. T. Seidl,
    W. D. Allen, H. F. Schaefer, R. A. King, E. F. Valeev, C. D. Sherrill,
    and T. D. Crawford, WIREs Comput. Mol. Sci. 2, 556-565 (2012)
    (doi: 10.1002/wcms.93)

                         Additional Contributions by
    A. E. DePrince, M. Saitow, U. Bozkaya, A. Yu. Sokolov
    -----------------------------------------------------------------------


    Psi4 started on: Tue Jul  5 16:34:55 2016

    Process ID:   6349
    PSI4DATADIR: /export131/home/mjharvey/miniconda3/share
    Memory level set to 256.000 MB

  ==> Input File <==

--------------------------------------------------------------------------
set {
	reference rhf
	basis 6-31G*
}


set_num_threads( 1 )
memory 2 gb

molecule MOL {
0 1

H	 -1.836216	 1.387520	 -0.000064
C	 -1.301823	 0.443321	 -0.000031
O	 -0.003969	 0.658512	 0.000451
O	 -1.829879	 -0.616434	 -0.000857
C	 0.714421	 0.338874	 -1.190739
C	 0.704977	 -1.167470	 -1.336195
H	 1.719762	 0.728128	 -1.106544
H	 0.235597	 0.826674	 -2.028638
H	 1.181308	 -1.639341	 -0.484443
H	 1.243590	 -1.453933	 -2.233451
H	 -0.309987	 -1.540481	 -1.411012

	symmetry c1
}
set optking {
	frozen_dihedral = ("
		7 5 3 2
	")
}

ee = energy('scf')
oeprop('DIPOLE', 'QUADRUPOLE', 'MULLIKEN_CHARGES')
f=open( 'psi4out.xyz', 'w' )
f.write( "11  " )
f.write( str(ee) + "\n" )
f.write( MOL.save_string_xyz() )
f.close()
--------------------------------------------------------------------------

  Memory set to   2.000 GiB by Python script.

*** tstart() called on cx1-3-6-1.cx1.hpc.ic.ac.uk
*** at Tue Jul  5 16:34:56 2016


         ---------------------------------------------------------
                                   SCF
            by Justin Turney, Rob Parrish, and Andy Simmonett
                              RHF Reference
                        1 Threads,   2000 MiB Core
         ---------------------------------------------------------

  ==> Geometry <==

    Molecular point group: c1
    Full point group: C1

    Geometry (in Angstrom), charge = 0, multiplicity = 1:

       Center              X                  Y                   Z               Mass       
    ------------   -----------------  -----------------  -----------------  -----------------
           H         -1.489499046100     1.463900071412     0.508481461415     1.007825032070
           C         -0.955106046100     0.519701071412     0.508514461415    12.000000000000
           O          0.342747953900     0.734892071412     0.508996461415    15.994914619560
           O         -1.483162046100    -0.540053928588     0.507688461415    15.994914619560
           C          1.061137953900     0.415254071412    -0.682193538585    12.000000000000
           C          1.051693953900    -1.091089928588    -0.827649538585    12.000000000000
           H          2.066478953900     0.804508071412    -0.597998538585     1.007825032070
           H          0.582313953900     0.903054071412    -1.520092538585     1.007825032070
           H          1.528024953900    -1.562960928588     0.024102461415     1.007825032070
           H          1.590306953900    -1.377552928588    -1.724905538585     1.007825032070
           H          0.036729953900    -1.464100928588    -0.902466538585     1.007825032070

  Running in c1 symmetry.

  Rotational constants: A =      0.31948  B =      0.14573  C =      0.10894 [cm^-1]
  Rotational constants: A =   9577.76790  B =   4368.87014  C =   3265.93559 [MHz]
  Nuclear repulsion =  183.707465759402822

  Charge       = 0
  Multiplicity = 1
  Electrons    = 40
  Nalpha       = 20
  Nbeta        = 20

  ==> Algorithm <==

  SCF Algorithm Type is DF.
  DIIS enabled.
  MOM disabled.
  Fractional occupation disabled.
  Guess Type is CORE.
  Energy threshold   = 1.00e-06
  Density threshold  = 1.00e-06
  Integral threshold = 0.00e+00

  ==> Primary Basis <==

  Basis Set: 6-31G*
    Number of shells: 42
    Number of basis function: 87
    Number of Cartesian functions: 87
    Spherical Harmonics?: false
    Max angular momentum: 2

  ==> Pre-Iterations <==

   -------------------------------------------------------
    Irrep   Nso     Nmo     Nalpha   Nbeta   Ndocc  Nsocc
   -------------------------------------------------------
     A         87      87       0       0       0       0
   -------------------------------------------------------
    Total      87      87      20      20      20       0
   -------------------------------------------------------

 OEINTS: Overlap, kinetic, potential, dipole, and quadrupole integrals
         stored in file 35.

  ==> Integral Setup <==

  ==> DFJK: Density-Fitted J/K Matrices <==

    J tasked:                  Yes
    K tasked:                  Yes
    wK tasked:                  No
    OpenMP threads:              1
    Integrals threads:           1
    Memory (MB):              1430
    Algorithm:                Core
    Integral Cache:           NONE
    Schwarz Cutoff:          1E-12
    Fitting Condition:       1E-12

   => Auxiliary Basis Set <=

  Basis Set: 
    Number of shells: 174
    Number of basis function: 555
    Number of Cartesian functions: 555
    Spherical Harmonics?: false
    Max angular momentum: 3

  Minimum eigenvalue in the overlap matrix is 5.0220715268E-03.
  Using Symmetric Orthogonalization.
  SCF Guess: Core (One-Electron) Hamiltonian.

  ==> Iterations <==

                           Total Energy        Delta E     RMS |[F,P]|

   @DF-RHF iter   1:  -217.56419335254978   -2.17564e+02   8.35058e-02 
   @DF-RHF iter   2:  -167.75147559965453    4.98127e+01   8.27876e-02 DIIS
   @DF-RHF iter   3:  -243.29069953552286   -7.55392e+01   4.27766e-02 DIIS
   @DF-RHF iter   4:  -237.68403233954686    5.60667e+00   6.31013e-02 DIIS
   @DF-RHF iter   5:  -265.91637261462495   -2.82323e+01   1.55983e-02 DIIS
   @DF-RHF iter   6:  -266.47322424362619   -5.56852e-01   1.00651e-02 DIIS
   @DF-RHF iter   7:  -266.75919434441232   -2.85970e-01   3.01400e-03 DIIS
   @DF-RHF iter   8:  -266.79526669065012   -3.60723e-02   1.40075e-03 DIIS
   @DF-RHF iter   9:  -266.80378886041922   -8.52217e-03   4.69628e-04 DIIS
   @DF-RHF iter  10:  -266.80491225303945   -1.12339e-03   9.81815e-05 DIIS
   @DF-RHF iter  11:  -266.80495960894746   -4.73559e-05   2.93099e-05 DIIS
   @DF-RHF iter  12:  -266.80496516644064   -5.55749e-06   9.78172e-06 DIIS
   @DF-RHF iter  13:  -266.80496581497630   -6.48536e-07   3.99290e-06 DIIS
   @DF-RHF iter  14:  -266.80496594742726   -1.32451e-07   1.08479e-06 DIIS
   @DF-RHF iter  15:  -266.80496596017099   -1.27437e-08   2.84826e-07 DIIS

  ==> Post-Iterations <==

    Orbital Energies (a.u.)
    -----------------------

    Doubly Occupied:                                                      

       1A    -20.594262     2A    -20.568634     3A    -11.381632  
       4A    -11.301695     5A    -11.214478     6A     -1.473304  
       7A     -1.378832     8A     -1.046144     9A     -0.899986  
      10A     -0.820357    11A     -0.725422    12A     -0.689812  
      13A     -0.678818    14A     -0.605622    15A     -0.579615  
      16A     -0.545984    17A     -0.529161    18A     -0.493131  
      19A     -0.463081    20A     -0.445894  

    Virtual:                                                              

      21A      0.164941    22A      0.252242    23A      0.282755  
      24A      0.285641    25A      0.300027    26A      0.319071  
      27A      0.336084    28A      0.357712    29A      0.402251  
      30A      0.463185    31A      0.526175    32A      0.703530  
      33A      0.722825    34A      0.740960    35A      0.773151  
      36A      0.800343    37A      0.817737    38A      0.906102  
      39A      0.966058    40A      1.001009    41A      1.015998  
      42A      1.089706    43A      1.096603    44A      1.117759  
      45A      1.156156    46A      1.183763    47A      1.188213  
      48A      1.242523    49A      1.257458    50A      1.303773  
      51A      1.328246    52A      1.396412    53A      1.405485  
      54A      1.497297    55A      1.631323    56A      1.657108  
      57A      1.710214    58A      1.800351    59A      1.830221  
      60A      1.910150    61A      1.985290    62A      2.019069  
      63A      2.100876    64A      2.196902    65A      2.210932  
      66A      2.235930    67A      2.263799    68A      2.320700  
      69A      2.386247    70A      2.503822    71A      2.565647  
      72A      2.587118    73A      2.664605    74A      2.734222  
      75A      2.739403    76A      2.901631    77A      2.968974  
      78A      2.986418    79A      3.160083    80A      3.299738  
      81A      3.316087    82A      3.426601    83A      4.299056  
      84A      4.397652    85A      4.607406    86A      4.626490  
      87A      4.840654  

    Final Occupation by Irrep:
              A 
    DOCC [    20 ]

  Energy converged.

  @DF-RHF Final Energy:  -266.80496596017099

   => Energetics <=

    Nuclear Repulsion Energy =            183.7074657594028224
    One-Electron Energy =                -728.1531298990981895
    Two-Electron Energy =                 277.6406981795244064
    DFT Exchange-Correlation Energy =       0.0000000000000000
    Empirical Dispersion Energy =           0.0000000000000000
    PCM Polarization Energy =               0.0000000000000000
    EFP Energy =                            0.0000000000000000
    Total Energy =                       -266.8049659601709891

    Alert: EFP and PCM quantities not currently incorporated into SCF psivars.

Properties will be evaluated at   0.000000,   0.000000,   0.000000 Bohr
  ==> Properties <==


Properties computed using the SCF density matrix

  Nuclear Dipole Moment: (a.u.)
     X:     4.0391      Y:    -1.1551      Z:    -3.9446

  Electronic Dipole Moment: (a.u.)
     X:    -3.4910      Y:     1.8391      Z:     3.3013

  Dipole Moment: (a.u.)
     X:     0.5481      Y:     0.6840      Z:    -0.6433     Total:     1.0873

  Dipole Moment: (Debye)
     X:     1.3932      Y:     1.7386      Z:    -1.6351     Total:     2.7636


  Saving occupied orbitals to File 180.

*** tstop() called on cx1-3-6-1.cx1.hpc.ic.ac.uk at Tue Jul  5 16:35:00 2016
Module time:
	user time   =       3.44 seconds =       0.06 minutes
	system time =       0.03 seconds =       0.00 minutes
	total time  =          4 seconds =       0.07 minutes
Total time:
	user time   =       3.44 seconds =       0.06 minutes
	system time =       0.03 seconds =       0.00 minutes
	total time  =          4 seconds =       0.07 minutes


Properties will be evaluated at   0.000000,   0.000000,   0.000000 Bohr

Properties computed using the  density matrix

  Nuclear Dipole Moment: (a.u.)
     X:     4.0391      Y:    -1.1551      Z:    -3.9446

  Electronic Dipole Moment: (a.u.)
     X:    -3.4910      Y:     1.8391      Z:     3.3013

  Dipole Moment: (a.u.)
     X:     0.5481      Y:     0.6840      Z:    -0.6433     Total:     1.0873

  Dipole Moment: (Debye)
     X:     1.3932      Y:     1.7386      Z:    -1.6351     Total:     2.7636

  Quadrupole Moment: (Debye Ang)
    XX:   -30.8451     YY:   -30.3140     ZZ:   -29.5448
    XY:    -3.5030     XZ:    -0.8396     YZ:     0.0416

  Traceless Quadrupole Moment: (Debye Ang)
    XX:    -0.6105     YY:    -0.0794     ZZ:     0.6898
    XY:    -3.5030     XZ:    -0.8396     YZ:     0.0416

  Mulliken Charges: (a.u.)
   Center  Symbol    Alpha    Beta     Spin     Total
       1     H     0.41997  0.41997  0.00000  0.16005
       2     C     2.73179  2.73179  0.00000  0.53642
       3     O     4.29796  4.29796  0.00000 -0.59592
       4     O     4.23979  4.23979  0.00000 -0.47958
       5     C     3.01136  3.01136  0.00000 -0.02272
       6     C     3.25483  3.25483  0.00000 -0.50966
       7     H     0.40243  0.40243  0.00000  0.19515
       8     H     0.41735  0.41735  0.00000  0.16530
       9     H     0.40907  0.40907  0.00000  0.18187
      10     H     0.42329  0.42329  0.00000  0.15342
      11     H     0.39217  0.39217  0.00000  0.21567

   Total alpha = 20.00000, Total beta = 20.00000, Total charge = -0.00000


*** PSI4 exiting successfully. Buy a developer a beer!
