    -----------------------------------------------------------------------
          Psi4: An Open-Source Ab Initio Electronic Structure Package
                              Psi4 (no tag) Driver

                          Git: Rev {detached?}  

    J. M. Turney, A. C. Simmonett, R. M. Parrish, E. G. Hohenstein,
    F. A. Evangelista, J. T. Fermann, B. J. Mintz, L. A. Burns, J. J. Wilke,
    M. L. Abrams, N. J. Russ, M. L. Leininger, C. L. Janssen, E. T. Seidl,
    W. D. Allen, H. F. Schaefer, R. A. King, E. F. Valeev, C. D. Sherrill,
    and T. D. Crawford, WIREs Comput. Mol. Sci. 2, 556-565 (2012)
    (doi: 10.1002/wcms.93)

                         Additional Contributions by
    A. E. DePrince, M. Saitow, U. Bozkaya, A. Yu. Sokolov
    -----------------------------------------------------------------------


    Psi4 started on: Tue Jul  5 16:25:55 2016

    Process ID:  26910
    PSI4DATADIR: /export131/home/mjharvey/miniconda3/share
    Memory level set to 256.000 MB

  ==> Input File <==

--------------------------------------------------------------------------
set {
	reference rhf
	basis 6-31G*
}


set_num_threads( 1 )
memory 2 gb

molecule MOL {
0 1

H	 -3.042581	 -0.665861	 0.004336
O	 -2.245037	 -1.176175	 0.000806
C	 -1.162163	 -0.365336	 0.001020
C	 -1.224187	 0.957122	 0.401755
C	 0.040888	 -0.913773	 -0.426434
H	 -2.156510	 1.384337	 0.730745
C	 -0.069160	 1.725790	 0.370593
H	 0.052374	 -1.943842	 -0.732933
C	 1.192400	 -0.146789	 -0.455902
H	 -0.114278	 2.755218	 0.679273
C	 1.128987	 1.187203	 -0.052894
C	 2.506100	 -0.748553	 -0.897687
H	 2.015251	 1.796654	 -0.073757
H	 3.045710	 -0.072172	 -1.551996
H	 2.355572	 -1.681221	 -1.428096
H	 3.143207	 -0.952841	 -0.041704

	symmetry c1
}
ee = energy('scf')
oeprop('DIPOLE', 'QUADRUPOLE', 'MULLIKEN_CHARGES')
f=open( 'psi4out.xyz', 'w' )
f.write( "16  " )
f.write( str(ee) + "\n" )
f.write( MOL.save_string_xyz() )
f.close()
--------------------------------------------------------------------------

  Memory set to   2.000 GiB by Python script.

*** tstart() called on cx1-3-1-3.cx1.hpc.ic.ac.uk
*** at Tue Jul  5 16:25:55 2016


         ---------------------------------------------------------
                                   SCF
            by Justin Turney, Rob Parrish, and Andy Simmonett
                              RHF Reference
                        1 Threads,   2000 MiB Core
         ---------------------------------------------------------

  ==> Geometry <==

    Molecular point group: c1
    Full point group: C1

    Geometry (in Angstrom), charge = 0, multiplicity = 1:

       Center              X                  Y                   Z               Mass       
    ------------   -----------------  -----------------  -----------------  -----------------
           H         -3.027639074998    -0.685852899204     0.144397695630     1.007825032070
           O         -2.230095074998    -1.196166899204     0.140867695630    15.994914619560
           C         -1.147221074998    -0.385327899204     0.141081695630    12.000000000000
           C         -1.209245074998     0.937130100796     0.541816695630    12.000000000000
           C          0.055829925002    -0.933764899204    -0.286372304370    12.000000000000
           H         -2.141568074998     1.364345100796     0.870806695630     1.007825032070
           C         -0.054218074998     1.705798100796     0.510654695630    12.000000000000
           H          0.067315925002    -1.963833899204    -0.592871304370     1.007825032070
           C          1.207341925002    -0.166780899204    -0.315840304370    12.000000000000
           H         -0.099336074998     2.735226100796     0.819334695630     1.007825032070
           C          1.143928925002     1.167211100796     0.087167695630    12.000000000000
           C          2.521041925002    -0.768544899204    -0.757625304370    12.000000000000
           H          2.030192925002     1.776662100796     0.066304695630     1.007825032070
           H          3.060651925002    -0.092163899204    -1.411934304370     1.007825032070
           H          2.370513925002    -1.701212899204    -1.288034304370     1.007825032070
           H          3.158148925002    -0.972832899204     0.098357695630     1.007825032070

  Running in c1 symmetry.

  Rotational constants: A =      0.12401  B =      0.06056  C =      0.04101 [cm^-1]
  Rotational constants: A =   3717.59995  B =   1815.47120  C =   1229.48376 [MHz]
  Nuclear repulsion =  345.560702089107906

  Charge       = 0
  Multiplicity = 1
  Electrons    = 58
  Nalpha       = 29
  Nbeta        = 29

  ==> Algorithm <==

  SCF Algorithm Type is DF.
  DIIS enabled.
  MOM disabled.
  Fractional occupation disabled.
  Guess Type is CORE.
  Energy threshold   = 1.00e-06
  Density threshold  = 1.00e-06
  Integral threshold = 0.00e+00

  ==> Primary Basis <==

  Basis Set: 6-31G*
    Number of shells: 64
    Number of basis function: 136
    Number of Cartesian functions: 136
    Spherical Harmonics?: false
    Max angular momentum: 2

  ==> Pre-Iterations <==

   -------------------------------------------------------
    Irrep   Nso     Nmo     Nalpha   Nbeta   Ndocc  Nsocc
   -------------------------------------------------------
     A        136     136       0       0       0       0
   -------------------------------------------------------
    Total     136     136      29      29      29       0
   -------------------------------------------------------

 OEINTS: Overlap, kinetic, potential, dipole, and quadrupole integrals
         stored in file 35.

  ==> Integral Setup <==

  ==> DFJK: Density-Fitted J/K Matrices <==

    J tasked:                  Yes
    K tasked:                  Yes
    wK tasked:                  No
    OpenMP threads:              1
    Integrals threads:           1
    Memory (MB):              1430
    Algorithm:                Core
    Integral Cache:           NONE
    Schwarz Cutoff:          1E-12
    Fitting Condition:       1E-12

   => Auxiliary Basis Set <=

  Basis Set: 
    Number of shells: 264
    Number of basis function: 848
    Number of Cartesian functions: 848
    Spherical Harmonics?: false
    Max angular momentum: 3

  Minimum eigenvalue in the overlap matrix is 4.1558408471E-04.
  Using Symmetric Orthogonalization.
  SCF Guess: Core (One-Electron) Hamiltonian.

  ==> Iterations <==

                           Total Energy        Delta E     RMS |[F,P]|

   @DF-RHF iter   1:  -269.11280830680704   -2.69113e+02   6.61432e-02 
   @DF-RHF iter   2:  -221.09326490598454    4.80195e+01   5.47451e-02 DIIS
   @DF-RHF iter   3:  -269.26562080391392   -4.81724e+01   6.27378e-02 DIIS
   @DF-RHF iter   4:  -328.25564819832795   -5.89900e+01   2.86880e-02 DIIS
   @DF-RHF iter   5:  -336.09478211844129   -7.83913e+00   2.41540e-02 DIIS
   @DF-RHF iter   6:  -344.07930790639790   -7.98453e+00   6.82944e-03 DIIS
   @DF-RHF iter   7:  -344.54632662066075   -4.67019e-01   2.13025e-03 DIIS
   @DF-RHF iter   8:  -344.58875820935174   -4.24316e-02   5.85625e-04 DIIS
   @DF-RHF iter   9:  -344.59379044701240   -5.03224e-03   1.86292e-04 DIIS
   @DF-RHF iter  10:  -344.59430640333636   -5.15956e-04   9.95246e-05 DIIS
   @DF-RHF iter  11:  -344.59450918991780   -2.02787e-04   3.23959e-05 DIIS
   @DF-RHF iter  12:  -344.59454816492922   -3.89750e-05   1.41129e-05 DIIS
   @DF-RHF iter  13:  -344.59455702393467   -8.85901e-06   7.22686e-06 DIIS
   @DF-RHF iter  14:  -344.59455904391444   -2.01998e-06   2.65811e-06 DIIS
   @DF-RHF iter  15:  -344.59455931046347   -2.66549e-07   4.50729e-07 DIIS

  ==> Post-Iterations <==

    Orbital Energies (a.u.)
    -----------------------

    Doubly Occupied:                                                      

       1A    -20.587534     2A    -11.294965     3A    -11.241296  
       4A    -11.234572     5A    -11.222531     6A    -11.220030  
       7A    -11.216289     8A    -11.216066     9A     -1.406617  
      10A     -1.149233    11A     -1.042724    12A     -1.004435  
      13A     -0.935925    14A     -0.823061    15A     -0.822445  
      16A     -0.713240    17A     -0.680078    18A     -0.652930  
      19A     -0.609942    20A     -0.590526    21A     -0.572365  
      22A     -0.568493    23A     -0.561158    24A     -0.529648  
      25A     -0.504291    26A     -0.481345    27A     -0.466865  
      28A     -0.328672    29A     -0.306641  

    Virtual:                                                              

      30A      0.148017    31A      0.162331    32A      0.226448  
      33A      0.245800    34A      0.267684    35A      0.295375  
      36A      0.312460    37A      0.328691    38A      0.342660  
      39A      0.347284    40A      0.398323    41A      0.413688  
      42A      0.457399    43A      0.481127    44A      0.511730  
      45A      0.548628    46A      0.592756    47A      0.626017  
      48A      0.722036    49A      0.738780    50A      0.755101  
      51A      0.771535    52A      0.773207    53A      0.817000  
      54A      0.834630    55A      0.839384    56A      0.848986  
      57A      0.875752    58A      0.884021    59A      0.889516  
      60A      0.916037    61A      0.951754    62A      0.971633  
      63A      1.010180    64A      1.028568    65A      1.034471  
      66A      1.111584    67A      1.121977    68A      1.132599  
      69A      1.157733    70A      1.168158    71A      1.176487  
      72A      1.195612    73A      1.211114    74A      1.228495  
      75A      1.247276    76A      1.255126    77A      1.263957  
      78A      1.334078    79A      1.374898    80A      1.409486  
      81A      1.431921    82A      1.472959    83A      1.503352  
      84A      1.545363    85A      1.616402    86A      1.621165  
      87A      1.652541    88A      1.677604    89A      1.739180  
      90A      1.762739    91A      1.772320    92A      1.781282  
      93A      1.965010    94A      2.056431    95A      2.092705  
      96A      2.112442    97A      2.145196    98A      2.192099  
      99A      2.202653   100A      2.212568   101A      2.238804  
     102A      2.268196   103A      2.295491   104A      2.327239  
     105A      2.416310   106A      2.452381   107A      2.470357  
     108A      2.506848   109A      2.536757   110A      2.553975  
     111A      2.629160   112A      2.650419   113A      2.704575  
     114A      2.706534   115A      2.730487   116A      2.789895  
     117A      2.870666   118A      2.909463   119A      2.962675  
     120A      3.042474   121A      3.045389   122A      3.124714  
     123A      3.139787   124A      3.209543   125A      3.276759  
     126A      3.330193   127A      3.527623   128A      3.843634  
     129A      4.362155   130A      4.535779   131A      4.553140  
     132A      4.623390   133A      4.677758   134A      4.795193  
     135A      4.879410   136A      5.194985  

    Final Occupation by Irrep:
              A 
    DOCC [    29 ]

  Energy converged.

  @DF-RHF Final Energy:  -344.59455931046347

   => Energetics <=

    Nuclear Repulsion Energy =            345.5607020891079060
    One-Electron Energy =               -1152.3428873696279879
    Two-Electron Energy =                 462.1876259700569562
    DFT Exchange-Correlation Energy =       0.0000000000000000
    Empirical Dispersion Energy =           0.0000000000000000
    PCM Polarization Energy =               0.0000000000000000
    EFP Energy =                            0.0000000000000000
    Total Energy =                       -344.5945593104630689

    Alert: EFP and PCM quantities not currently incorporated into SCF psivars.

Properties will be evaluated at   0.000000,   0.000000,   0.000000 Bohr
  ==> Properties <==


Properties computed using the SCF density matrix

  Nuclear Dipole Moment: (a.u.)
     X:     5.0688      Y:     0.4258      Z:    -1.2121

  Electronic Dipole Moment: (a.u.)
     X:    -5.1976      Y:     0.0622      Z:     1.1650

  Dipole Moment: (a.u.)
     X:    -0.1289      Y:     0.4880      Z:    -0.0470     Total:     0.5069

  Dipole Moment: (Debye)
     X:    -0.3276      Y:     1.2404      Z:    -0.1195     Total:     1.2884


  Saving occupied orbitals to File 180.

*** tstop() called on cx1-3-1-3.cx1.hpc.ic.ac.uk at Tue Jul  5 16:26:07 2016
Module time:
	user time   =      11.12 seconds =       0.19 minutes
	system time =       0.08 seconds =       0.00 minutes
	total time  =         12 seconds =       0.20 minutes
Total time:
	user time   =      11.12 seconds =       0.19 minutes
	system time =       0.08 seconds =       0.00 minutes
	total time  =         12 seconds =       0.20 minutes


Properties will be evaluated at   0.000000,   0.000000,   0.000000 Bohr

Properties computed using the  density matrix

  Nuclear Dipole Moment: (a.u.)
     X:     5.0688      Y:     0.4258      Z:    -1.2121

  Electronic Dipole Moment: (a.u.)
     X:    -5.1976      Y:     0.0622      Z:     1.1650

  Dipole Moment: (a.u.)
     X:    -0.1289      Y:     0.4880      Z:    -0.0470     Total:     0.5069

  Dipole Moment: (Debye)
     X:    -0.3276      Y:     1.2404      Z:    -0.1195     Total:     1.2884

  Quadrupole Moment: (Debye Ang)
    XX:   -38.5126     YY:   -47.0865     ZZ:   -50.2304
    XY:    -3.1432     XZ:    -1.5768     YZ:     2.2166

  Traceless Quadrupole Moment: (Debye Ang)
    XX:     6.7639     YY:    -1.8100     ZZ:    -4.9539
    XY:    -3.1432     XZ:    -1.5768     YZ:     2.2166

  Mulliken Charges: (a.u.)
   Center  Symbol    Alpha    Beta     Spin     Total
       1     H     0.27208  0.27208  0.00000  0.45584
       2     O     4.37959  4.37959  0.00000 -0.75918
       3     C     2.79198  2.79198  0.00000  0.41603
       4     C     3.14722  3.14722  0.00000 -0.29444
       5     C     3.13987  3.13987  0.00000 -0.27975
       6     H     0.40465  0.40465  0.00000  0.19069
       7     C     3.08763  3.08763  0.00000 -0.17527
       8     H     0.39443  0.39443  0.00000  0.21115
       9     C     2.96968  2.96968  0.00000  0.06064
      10     H     0.39897  0.39897  0.00000  0.20205
      11     C     3.12332  3.12332  0.00000 -0.24664
      12     C     3.25457  3.25457  0.00000 -0.50913
      13     H     0.40334  0.40334  0.00000  0.19332
      14     H     0.41210  0.41210  0.00000  0.17580
      15     H     0.41169  0.41169  0.00000  0.17663
      16     H     0.40887  0.40887  0.00000  0.18226

   Total alpha = 29.00000, Total beta = 29.00000, Total charge = -0.00000


*** PSI4 exiting successfully. Buy a developer a beer!
