    -----------------------------------------------------------------------
          Psi4: An Open-Source Ab Initio Electronic Structure Package
                              Psi4 (no tag) Driver

                          Git: Rev {detached?}  

    J. M. Turney, A. C. Simmonett, R. M. Parrish, E. G. Hohenstein,
    F. A. Evangelista, J. T. Fermann, B. J. Mintz, L. A. Burns, J. J. Wilke,
    M. L. Abrams, N. J. Russ, M. L. Leininger, C. L. Janssen, E. T. Seidl,
    W. D. Allen, H. F. Schaefer, R. A. King, E. F. Valeev, C. D. Sherrill,
    and T. D. Crawford, WIREs Comput. Mol. Sci. 2, 556-565 (2012)
    (doi: 10.1002/wcms.93)

                         Additional Contributions by
    A. E. DePrince, M. Saitow, U. Bozkaya, A. Yu. Sokolov
    -----------------------------------------------------------------------


    Psi4 started on: Tue Jul  5 16:51:21 2016

    Process ID:  14545
    PSI4DATADIR: /export131/home/mjharvey/miniconda3/share
    Memory level set to 256.000 MB

  ==> Input File <==

--------------------------------------------------------------------------
set {
	reference rhf
	basis 6-31G*
}


set_num_threads( 1 )
memory 2 gb

molecule MOL {
0 1

H	 -2.646374	 -0.642757	 1.268656
C	 -2.083525	 -0.384536	 0.393091
O	 -0.807605	 -0.127164	 0.768327
F	 -2.118945	 -1.383102	 -0.486752
F	 -2.621877	 0.670592	 -0.209486
C	 0.084052	 0.273579	 -0.209957
C	 1.353033	 -0.546803	 -0.018071
Cl	 0.433844	 2.004619	 -0.074457
H	 -0.288836	 0.092657	 -1.202930
F	 1.304051	 -1.645049	 -0.741669
F	 1.445055	 -0.895782	 1.249676
F	 2.430457	 0.125197	 -0.342951

	symmetry c1
}
set optking {
	frozen_dihedral = ("
		9 6 3 2,
		6 3 2 4
	")
}

ee = energy('scf')
oeprop('DIPOLE', 'QUADRUPOLE', 'MULLIKEN_CHARGES')
f=open( 'psi4out.xyz', 'w' )
f.write( "12  " )
f.write( str(ee) + "\n" )
f.write( MOL.save_string_xyz() )
f.close()
--------------------------------------------------------------------------

  Memory set to   2.000 GiB by Python script.

*** tstart() called on cx1-3-4-4.cx1.hpc.ic.ac.uk
*** at Tue Jul  5 16:51:22 2016


         ---------------------------------------------------------
                                   SCF
            by Justin Turney, Rob Parrish, and Andy Simmonett
                              RHF Reference
                        1 Threads,   2000 MiB Core
         ---------------------------------------------------------

  ==> Geometry <==

    Molecular point group: c1
    Full point group: C1

    Geometry (in Angstrom), charge = 0, multiplicity = 1:

       Center              X                  Y                   Z               Mass       
    ------------   -----------------  -----------------  -----------------  -----------------
           H         -2.645685709544    -0.643778808459     1.259735944552     1.007825032070
           C         -2.082836709544    -0.385557808459     0.384170944552    12.000000000000
           O         -0.806916709544    -0.128185808459     0.759406944552    15.994914619560
           F         -2.118256709544    -1.384123808459    -0.495672055448    18.998403224000
           F         -2.621188709544     0.669570191541    -0.218406055448    18.998403224000
           C          0.084740290456     0.272557191541    -0.218877055448    12.000000000000
           C          1.353721290456    -0.547824808459    -0.026991055448    12.000000000000
          CL          0.434532290456     2.003597191541    -0.083377055448    34.968852682000
           H         -0.288147709544     0.091635191541    -1.211850055448     1.007825032070
           F          1.304739290456    -1.646070808459    -0.750589055448    18.998403224000
           F          1.445743290456    -0.896803808459     1.240755944552    18.998403224000
           F          2.431145290456     0.124175191541    -0.351871055448    18.998403224000

  Running in c1 symmetry.

  Rotational constants: A =      0.05236  B =      0.03004  C =      0.02225 [cm^-1]
  Rotational constants: A =   1569.56755  B =    900.52055  C =    666.90339 [MHz]
  Nuclear repulsion =  738.743797434518683

  Charge       = 0
  Multiplicity = 1
  Electrons    = 90
  Nalpha       = 45
  Nbeta        = 45

  ==> Algorithm <==

  SCF Algorithm Type is DF.
  DIIS enabled.
  MOM disabled.
  Fractional occupation disabled.
  Guess Type is CORE.
  Energy threshold   = 1.00e-06
  Density threshold  = 1.00e-06
  Integral threshold = 0.00e+00

  ==> Primary Basis <==

  Basis Set: 6-31G*
    Number of shells: 66
    Number of basis function: 158
    Number of Cartesian functions: 158
    Spherical Harmonics?: false
    Max angular momentum: 2

  ==> Pre-Iterations <==

   -------------------------------------------------------
    Irrep   Nso     Nmo     Nalpha   Nbeta   Ndocc  Nsocc
   -------------------------------------------------------
     A        158     158       0       0       0       0
   -------------------------------------------------------
    Total     158     158      45      45      45       0
   -------------------------------------------------------

 OEINTS: Overlap, kinetic, potential, dipole, and quadrupole integrals
         stored in file 35.

  ==> Integral Setup <==

  ==> DFJK: Density-Fitted J/K Matrices <==

    J tasked:                  Yes
    K tasked:                  Yes
    wK tasked:                  No
    OpenMP threads:              1
    Integrals threads:           1
    Memory (MB):              1430
    Algorithm:                Core
    Integral Cache:           NONE
    Schwarz Cutoff:          1E-12
    Fitting Condition:       1E-12

   => Auxiliary Basis Set <=

  Basis Set: 
    Number of shells: 270
    Number of basis function: 909
    Number of Cartesian functions: 909
    Spherical Harmonics?: false
    Max angular momentum: 3

  Minimum eigenvalue in the overlap matrix is 1.6686443669E-03.
  Using Symmetric Orthogonalization.
  SCF Guess: Core (One-Electron) Hamiltonian.

  ==> Iterations <==

                           Total Energy        Delta E     RMS |[F,P]|

   @DF-RHF iter   1: -1036.98879615690112   -1.03699e+03   6.84839e-02 
   @DF-RHF iter   2:  -708.39170735346283    3.28597e+02   7.85419e-02 DIIS
   @DF-RHF iter   3:  -979.16756268492213   -2.70776e+02   6.65766e-02 DIIS
   @DF-RHF iter   4: -1118.56963563856993   -1.39402e+02   3.46021e-02 DIIS
   @DF-RHF iter   5: -1122.54418258959595   -3.97455e+00   3.67380e-02 DIIS
   @DF-RHF iter   6: -1140.32787164802949   -1.77837e+01   1.96159e-02 DIIS
   @DF-RHF iter   7: -1145.77288734563967   -5.44502e+00   7.30542e-03 DIIS
   @DF-RHF iter   8: -1146.26786648480243   -4.94979e-01   1.65814e-03 DIIS
   @DF-RHF iter   9: -1146.29764105707341   -2.97746e-02   8.97561e-04 DIIS
   @DF-RHF iter  10: -1146.30652770080792   -8.88664e-03   2.37665e-04 DIIS
   @DF-RHF iter  11: -1146.30726180759598   -7.34107e-04   1.10913e-04 DIIS
   @DF-RHF iter  12: -1146.30743285309791   -1.71046e-04   3.16873e-05 DIIS
   @DF-RHF iter  13: -1146.30744893836709   -1.60853e-05   8.97954e-06 DIIS
   @DF-RHF iter  14: -1146.30745032144659   -1.38308e-06   2.64133e-06 DIIS
   @DF-RHF iter  15: -1146.30745044644004   -1.24993e-07   9.77933e-07 DIIS

  ==> Post-Iterations <==

    Orbital Energies (a.u.)
    -----------------------

    Doubly Occupied:                                                      

       1A   -104.841698     2A    -26.362265     3A    -26.360117  
       4A    -26.350765     5A    -26.346176     6A    -26.345513  
       7A    -20.648372     8A    -11.527079     9A    -11.488780  
      10A    -11.399468    11A    -10.576476    12A     -8.045825  
      13A     -8.042265    14A     -8.042221    15A     -1.760906  
      16A     -1.717422    17A     -1.660192    18A     -1.652622  
      19A     -1.638123    20A     -1.484974    21A     -1.178803  
      22A     -1.051316    23A     -0.986550    24A     -0.917729  
      25A     -0.859552    26A     -0.850624    27A     -0.846882  
      28A     -0.824241    29A     -0.811343    30A     -0.791231  
      31A     -0.726310    32A     -0.722828    33A     -0.705460  
      34A     -0.702189    35A     -0.680248    36A     -0.673159  
      37A     -0.658694    38A     -0.656464    39A     -0.644549  
      40A     -0.628742    41A     -0.596463    42A     -0.580628  
      43A     -0.522707    44A     -0.474047    45A     -0.467570  

    Virtual:                                                              

      46A      0.174406    47A      0.240046    48A      0.258481  
      49A      0.275449    50A      0.349243    51A      0.362082  
      52A      0.410978    53A      0.414261    54A      0.449705  
      55A      0.477220    56A      0.487009    57A      0.550830  
      58A      0.621802    59A      0.629362    60A      0.641527  
      61A      0.669549    62A      0.701199    63A      0.710421  
      64A      0.743716    65A      0.753916    66A      0.765085  
      67A      0.797741    68A      0.845300    69A      0.926443  
      70A      0.967738    71A      0.979202    72A      1.059523  
      73A      1.064027    74A      1.105342    75A      1.132431  
      76A      1.170893    77A      1.210962    78A      1.251299  
      79A      1.282400    80A      1.292013    81A      1.313967  
      82A      1.318505    83A      1.370131    84A      1.399863  
      85A      1.422452    86A      1.430396    87A      1.469914  
      88A      1.510564    89A      1.587900    90A      1.596686  
      91A      1.612152    92A      1.616200    93A      1.635417  
      94A      1.643842    95A      1.655244    96A      1.664456  
      97A      1.668222    98A      1.681968    99A      1.690631  
     100A      1.736141   101A      1.771886   102A      1.793681  
     103A      1.915476   104A      1.948029   105A      1.964614  
     106A      1.990090   107A      2.001991   108A      2.037554  
     109A      2.087158   110A      2.091801   111A      2.099556  
     112A      2.125546   113A      2.128552   114A      2.157854  
     115A      2.165875   116A      2.259349   117A      2.288003  
     118A      2.299192   119A      2.312496   120A      2.324314  
     121A      2.336772   122A      2.363740   123A      2.392900  
     124A      2.395786   125A      2.402972   126A      2.414004  
     127A      2.439210   128A      2.499578   129A      2.568193  
     130A      2.602317   131A      2.652382   132A      2.708144  
     133A      2.734925   134A      2.778188   135A      2.860149  
     136A      2.902435   137A      2.992951   138A      3.038590  
     139A      3.132282   140A      3.169843   141A      3.172602  
     142A      3.284996   143A      3.311840   144A      3.399970  
     145A      3.417812   146A      3.422121   147A      3.438995  
     148A      3.468291   149A      4.330644   150A      4.525346  
     151A      4.595168   152A      4.700484   153A      4.709952  
     154A      4.909312   155A      4.956753   156A      5.212457  
     157A      5.681007   158A      5.862771  

    Final Occupation by Irrep:
              A 
    DOCC [    45 ]

  Energy converged.

  @DF-RHF Final Energy: -1146.30745044644004

   => Energetics <=

    Nuclear Repulsion Energy =            738.7437974345186831
    One-Electron Energy =               -3060.4036044429208232
    Two-Electron Energy =                1175.3523565619618694
    DFT Exchange-Correlation Energy =       0.0000000000000000
    Empirical Dispersion Energy =           0.0000000000000000
    PCM Polarization Energy =               0.0000000000000000
    EFP Energy =                            0.0000000000000000
    Total Energy =                      -1146.3074504464400434

    Alert: EFP and PCM quantities not currently incorporated into SCF psivars.

Properties will be evaluated at   0.000000,   0.000000,   0.000000 Bohr
  ==> Properties <==


Properties computed using the SCF density matrix

  Nuclear Dipole Moment: (a.u.)
     X:    -3.5692      Y:     0.6034      Z:     0.6680

  Electronic Dipole Moment: (a.u.)
     X:     2.9830      Y:    -0.8232      Z:    -0.6714

  Dipole Moment: (a.u.)
     X:    -0.5862      Y:    -0.2199      Z:    -0.0033     Total:     0.6261

  Dipole Moment: (Debye)
     X:    -1.4900      Y:    -0.5589      Z:    -0.0085     Total:     1.5914


  Saving occupied orbitals to File 180.

*** tstop() called on cx1-3-4-4.cx1.hpc.ic.ac.uk at Tue Jul  5 16:51:42 2016
Module time:
	user time   =      19.43 seconds =       0.32 minutes
	system time =       0.25 seconds =       0.00 minutes
	total time  =         20 seconds =       0.33 minutes
Total time:
	user time   =      19.43 seconds =       0.32 minutes
	system time =       0.25 seconds =       0.00 minutes
	total time  =         20 seconds =       0.33 minutes


Properties will be evaluated at   0.000000,   0.000000,   0.000000 Bohr

Properties computed using the  density matrix

  Nuclear Dipole Moment: (a.u.)
     X:    -3.5692      Y:     0.6034      Z:     0.6680

  Electronic Dipole Moment: (a.u.)
     X:     2.9830      Y:    -0.8232      Z:    -0.6714

  Dipole Moment: (a.u.)
     X:    -0.5862      Y:    -0.2199      Z:    -0.0033     Total:     0.6261

  Dipole Moment: (Debye)
     X:    -1.4900      Y:    -0.5589      Z:    -0.0085     Total:     1.5914

  Quadrupole Moment: (Debye Ang)
    XX:   -59.6613     YY:   -63.2541     ZZ:   -58.7830
    XY:     1.7287     XZ:    -4.0524     YZ:    -1.0768

  Traceless Quadrupole Moment: (Debye Ang)
    XX:     0.9048     YY:    -2.6879     ZZ:     1.7831
    XY:     1.7287     XZ:    -4.0524     YZ:    -1.0768

  Mulliken Charges: (a.u.)
   Center  Symbol    Alpha    Beta     Spin     Total
       1     H     0.40114  0.40114  0.00000  0.19772
       2     C     2.56609  2.56609  0.00000  0.86782
       3     O     4.29382  4.29382  0.00000 -0.58764
       4     F     4.68673  4.68673  0.00000 -0.37345
       5     F     4.68440  4.68440  0.00000 -0.36879
       6     C     3.06376  3.06376  0.00000 -0.12753
       7     C     2.42601  2.42601  0.00000  1.14798
       8    CL     8.49720  8.49720  0.00000  0.00560
       9     H     0.36554  0.36554  0.00000  0.26891
      10     F     4.67417  4.67417  0.00000 -0.34835
      11     F     4.67239  4.67239  0.00000 -0.34478
      12     F     4.66874  4.66874  0.00000 -0.33748

   Total alpha = 45.00000, Total beta = 45.00000, Total charge =  0.00000


*** PSI4 exiting successfully. Buy a developer a beer!
