    -----------------------------------------------------------------------
          Psi4: An Open-Source Ab Initio Electronic Structure Package
                              Psi4 (no tag) Driver

                          Git: Rev {detached?}  

    J. M. Turney, A. C. Simmonett, R. M. Parrish, E. G. Hohenstein,
    F. A. Evangelista, J. T. Fermann, B. J. Mintz, L. A. Burns, J. J. Wilke,
    M. L. Abrams, N. J. Russ, M. L. Leininger, C. L. Janssen, E. T. Seidl,
    W. D. Allen, H. F. Schaefer, R. A. King, E. F. Valeev, C. D. Sherrill,
    and T. D. Crawford, WIREs Comput. Mol. Sci. 2, 556-565 (2012)
    (doi: 10.1002/wcms.93)

                         Additional Contributions by
    A. E. DePrince, M. Saitow, U. Bozkaya, A. Yu. Sokolov
    -----------------------------------------------------------------------


    Psi4 started on: Tue Jul  5 16:24:18 2016

    Process ID:  16650
    PSI4DATADIR: /export131/home/mjharvey/miniconda3/share
    Memory level set to 256.000 MB

  ==> Input File <==

--------------------------------------------------------------------------
set {
	reference rhf
	basis 6-31G*
}


set_num_threads( 1 )
memory 2 gb

molecule MOL {
0 1

H	 -0.043176	 -0.918187	 -1.888977
N	 -0.635097	 -1.300471	 -1.176961
C	 -0.563778	 -0.502042	 0.037919
H	 -0.313572	 -2.233863	 -1.003306
C	 0.575259	 0.508231	 -0.048326
H	 -0.379745	 -1.178195	 0.867464
H	 -1.495719	 0.022884	 0.263049
C	 1.954651	 -0.143624	 0.035137
H	 0.475158	 1.060484	 -0.977307
H	 0.469181	 1.234488	 0.755973
H	 2.103292	 -0.853109	 -0.774172
H	 2.742821	 0.599562	 -0.030094
H	 2.083613	 -0.679371	 0.971560

	symmetry c1
}
set optking {
	frozen_dihedral = ("
		6 3 5 9
	")
}

ee = energy('scf')
oeprop('DIPOLE', 'QUADRUPOLE', 'MULLIKEN_CHARGES')
f=open( 'psi4out.xyz', 'w' )
f.write( "13  " )
f.write( str(ee) + "\n" )
f.write( MOL.save_string_xyz() )
f.close()
--------------------------------------------------------------------------

  Memory set to   2.000 GiB by Python script.

*** tstart() called on cx1-3-15-3.cx1.hpc.ic.ac.uk
*** at Tue Jul  5 16:24:19 2016


         ---------------------------------------------------------
                                   SCF
            by Justin Turney, Rob Parrish, and Andy Simmonett
                              RHF Reference
                        1 Threads,   2000 MiB Core
         ---------------------------------------------------------

  ==> Geometry <==

    Molecular point group: c1
    Full point group: C1

    Geometry (in Angstrom), charge = 0, multiplicity = 1:

       Center              X                  Y                   Z               Mass       
    ------------   -----------------  -----------------  -----------------  -----------------
           H         -0.388276165612    -0.531750339757    -1.584029248966     1.007825032070
           N         -0.980197165612    -0.914034339757    -0.872013248966    14.003074004780
           C         -0.908878165612    -0.115605339757     0.342866751034    12.000000000000
           H         -0.658672165612    -1.847426339757    -0.698358248966     1.007825032070
           C          0.230158834388     0.894667660243     0.256621751034    12.000000000000
           H         -0.724845165612    -0.791758339757     1.172411751034     1.007825032070
           H         -1.840819165612     0.409320660243     0.567996751034     1.007825032070
           C          1.609550834388     0.242812660243     0.340084751034    12.000000000000
           H          0.130057834388     1.446920660243    -0.672359248966     1.007825032070
           H          0.124080834388     1.620924660243     1.060920751034     1.007825032070
           H          1.758191834388    -0.466672339757    -0.469224248966     1.007825032070
           H          2.397720834388     0.985998660243     0.274853751034     1.007825032070
           H          1.738512834388    -0.292934339757     1.276507751034     1.007825032070

  Running in c1 symmetry.

  Rotational constants: A =      0.46070  B =      0.16798  C =      0.14438 [cm^-1]
  Rotational constants: A =  13811.51329  B =   5035.86257  C =   4328.54692 [MHz]
  Nuclear repulsion =  134.489651722327153

  Charge       = 0
  Multiplicity = 1
  Electrons    = 34
  Nalpha       = 17
  Nbeta        = 17

  ==> Algorithm <==

  SCF Algorithm Type is DF.
  DIIS enabled.
  MOM disabled.
  Fractional occupation disabled.
  Guess Type is CORE.
  Energy threshold   = 1.00e-06
  Density threshold  = 1.00e-06
  Integral threshold = 0.00e+00

  ==> Primary Basis <==

  Basis Set: 6-31G*
    Number of shells: 42
    Number of basis function: 78
    Number of Cartesian functions: 78
    Spherical Harmonics?: false
    Max angular momentum: 2

  ==> Pre-Iterations <==

   -------------------------------------------------------
    Irrep   Nso     Nmo     Nalpha   Nbeta   Ndocc  Nsocc
   -------------------------------------------------------
     A         78      78       0       0       0       0
   -------------------------------------------------------
    Total      78      78      17      17      17       0
   -------------------------------------------------------

 OEINTS: Overlap, kinetic, potential, dipole, and quadrupole integrals
         stored in file 35.

  ==> Integral Setup <==

  ==> DFJK: Density-Fitted J/K Matrices <==

    J tasked:                  Yes
    K tasked:                  Yes
    wK tasked:                  No
    OpenMP threads:              1
    Integrals threads:           1
    Memory (MB):              1430
    Algorithm:                Core
    Integral Cache:           NONE
    Schwarz Cutoff:          1E-12
    Fitting Condition:       1E-12

   => Auxiliary Basis Set <=

  Basis Set: 
    Number of shells: 177
    Number of basis function: 549
    Number of Cartesian functions: 549
    Spherical Harmonics?: false
    Max angular momentum: 3

  Minimum eigenvalue in the overlap matrix is 5.1197137706E-03.
  Using Symmetric Orthogonalization.
  SCF Guess: Core (One-Electron) Hamiltonian.

  ==> Iterations <==

                           Total Energy        Delta E     RMS |[F,P]|

   @DF-RHF iter   1:  -134.77152478117091   -1.34772e+02   8.60933e-02 
   @DF-RHF iter   2:  -104.22200609184478    3.05495e+01   8.27624e-02 DIIS
   @DF-RHF iter   3:  -150.47890937147946   -4.62569e+01   4.82069e-02 DIIS
   @DF-RHF iter   4:  -148.77724080605213    1.70167e+00   6.20802e-02 DIIS
   @DF-RHF iter   5:  -173.14208765500643   -2.43648e+01   6.05770e-03 DIIS
   @DF-RHF iter   6:  -173.25116188193863   -1.09074e-01   2.46058e-03 DIIS
   @DF-RHF iter   7:  -173.26999293574818   -1.88311e-02   1.16062e-03 DIIS
   @DF-RHF iter   8:  -173.27534671038416   -5.35377e-03   3.36717e-04 DIIS
   @DF-RHF iter   9:  -173.27579961584286   -4.52905e-04   1.02347e-04 DIIS
   @DF-RHF iter  10:  -173.27585703643649   -5.74206e-05   2.77851e-05 DIIS
   @DF-RHF iter  11:  -173.27586044571842   -3.40928e-06   7.57401e-06 DIIS
   @DF-RHF iter  12:  -173.27586071095914   -2.65241e-07   1.66251e-06 DIIS
   @DF-RHF iter  13:  -173.27586072496882   -1.40097e-08   3.08531e-07 DIIS

  ==> Post-Iterations <==

    Orbital Energies (a.u.)
    -----------------------

    Doubly Occupied:                                                      

       1A    -15.530774     2A    -11.240458     3A    -11.218036  
       4A    -11.214327     5A     -1.179813     6A     -1.034692  
       7A     -0.908623     8A     -0.801793     9A     -0.667574  
      10A     -0.619400    11A     -0.609468    12A     -0.568025  
      13A     -0.539902    14A     -0.498534    15A     -0.483036  
      16A     -0.475287    17A     -0.375566  

    Virtual:                                                              

      18A      0.219725    19A      0.264051    20A      0.268883  
      21A      0.292032    22A      0.311168    23A      0.320687  
      24A      0.337951    25A      0.352350    26A      0.370250  
      27A      0.403848    28A      0.446440    29A      0.476178  
      30A      0.716753    31A      0.728369    32A      0.756609  
      33A      0.784178    34A      0.808689    35A      0.921151  
      36A      0.939596    37A      0.971905    38A      1.006316  
      39A      1.033336    40A      1.111515    41A      1.120406  
      42A      1.152128    43A      1.175932    44A      1.176970  
      45A      1.205208    46A      1.217888    47A      1.224648  
      48A      1.235809    49A      1.252086    50A      1.261197  
      51A      1.299787    52A      1.518738    53A      1.664828  
      54A      1.706211    55A      1.804835    56A      1.848497  
      57A      1.978506    58A      2.079321    59A      2.194146  
      60A      2.248209    61A      2.288778    62A      2.337707  
      63A      2.362298    64A      2.415656    65A      2.541911  
      66A      2.555673    67A      2.622763    68A      2.694166  
      69A      2.742511    70A      2.796408    71A      2.865585  
      72A      2.979857    73A      3.021196    74A      3.108591  
      75A      4.214977    76A      4.596680    77A      4.777328  
      78A      4.917138  

    Final Occupation by Irrep:
              A 
    DOCC [    17 ]

  Energy converged.

  @DF-RHF Final Energy:  -173.27586072496882

   => Energetics <=

    Nuclear Repulsion Energy =            134.4896517223271530
    One-Electron Energy =                -499.6003780423509397
    Two-Electron Energy =                 191.8348655950551063
    DFT Exchange-Correlation Energy =       0.0000000000000000
    Empirical Dispersion Energy =           0.0000000000000000
    PCM Polarization Energy =               0.0000000000000000
    EFP Energy =                            0.0000000000000000
    Total Energy =                       -173.2758607249686804

    Alert: EFP and PCM quantities not currently incorporated into SCF psivars.

Properties will be evaluated at   0.000000,   0.000000,   0.000000 Bohr
  ==> Properties <==


Properties computed using the SCF density matrix

  Nuclear Dipole Moment: (a.u.)
     X:     2.3802      Y:     0.5020      Z:     0.8732

  Electronic Dipole Moment: (a.u.)
     X:    -1.7773      Y:    -0.4931      Z:    -0.6746

  Dipole Moment: (a.u.)
     X:     0.6029      Y:     0.0089      Z:     0.1986     Total:     0.6349

  Dipole Moment: (Debye)
     X:     1.5325      Y:     0.0226      Z:     0.5047     Total:     1.6136


  Saving occupied orbitals to File 180.

*** tstop() called on cx1-3-15-3.cx1.hpc.ic.ac.uk at Tue Jul  5 16:24:22 2016
Module time:
	user time   =       2.95 seconds =       0.05 minutes
	system time =       0.03 seconds =       0.00 minutes
	total time  =          3 seconds =       0.05 minutes
Total time:
	user time   =       2.95 seconds =       0.05 minutes
	system time =       0.03 seconds =       0.00 minutes
	total time  =          3 seconds =       0.05 minutes


Properties will be evaluated at   0.000000,   0.000000,   0.000000 Bohr

Properties computed using the  density matrix

  Nuclear Dipole Moment: (a.u.)
     X:     2.3802      Y:     0.5020      Z:     0.8732

  Electronic Dipole Moment: (a.u.)
     X:    -1.7773      Y:    -0.4931      Z:    -0.6746

  Dipole Moment: (a.u.)
     X:     0.6029      Y:     0.0089      Z:     0.1986     Total:     0.6349

  Dipole Moment: (Debye)
     X:     1.5325      Y:     0.0226      Z:     0.5047     Total:     1.6136

  Quadrupole Moment: (Debye Ang)
    XX:   -31.6402     YY:   -26.0835     ZZ:   -27.2168
    XY:    -1.6275     XZ:    -2.7068     YZ:    -0.6280

  Traceless Quadrupole Moment: (Debye Ang)
    XX:    -3.3267     YY:     2.2300     ZZ:     1.0967
    XY:    -1.6275     XZ:    -2.7068     YZ:    -0.6280

  Mulliken Charges: (a.u.)
   Center  Symbol    Alpha    Beta     Spin     Total
       1     H     0.33172  0.33172  0.00000  0.33655
       2     N     3.92495  3.92495  0.00000 -0.84990
       3     C     3.05235  3.05235  0.00000 -0.10471
       4     H     0.33171  0.33171  0.00000  0.33657
       5     C     3.16896  3.16896  0.00000 -0.33793
       6     H     0.42654  0.42654  0.00000  0.14692
       7     H     0.41869  0.41869  0.00000  0.16262
       8     C     3.24076  3.24076  0.00000 -0.48152
       9     H     0.42104  0.42104  0.00000  0.15792
      10     H     0.42059  0.42059  0.00000  0.15882
      11     H     0.42511  0.42511  0.00000  0.14977
      12     H     0.41701  0.41701  0.00000  0.16597
      13     H     0.42055  0.42055  0.00000  0.15890

   Total alpha = 17.00000, Total beta = 17.00000, Total charge = -0.00000


*** PSI4 exiting successfully. Buy a developer a beer!
