    -----------------------------------------------------------------------
          Psi4: An Open-Source Ab Initio Electronic Structure Package
                              Psi4 (no tag) Driver

                          Git: Rev {detached?}  

    J. M. Turney, A. C. Simmonett, R. M. Parrish, E. G. Hohenstein,
    F. A. Evangelista, J. T. Fermann, B. J. Mintz, L. A. Burns, J. J. Wilke,
    M. L. Abrams, N. J. Russ, M. L. Leininger, C. L. Janssen, E. T. Seidl,
    W. D. Allen, H. F. Schaefer, R. A. King, E. F. Valeev, C. D. Sherrill,
    and T. D. Crawford, WIREs Comput. Mol. Sci. 2, 556-565 (2012)
    (doi: 10.1002/wcms.93)

                         Additional Contributions by
    A. E. DePrince, M. Saitow, U. Bozkaya, A. Yu. Sokolov
    -----------------------------------------------------------------------


    Psi4 started on: Tue Jul  5 16:54:43 2016

    Process ID:   6829
    PSI4DATADIR: /export131/home/mjharvey/miniconda3/share
    Memory level set to 256.000 MB

  ==> Input File <==

--------------------------------------------------------------------------
set {
	reference rhf
	basis 6-31G*
}


set_num_threads( 1 )
memory 2 gb

molecule MOL {
0 1

O	 -0.488453	 0.057968	 1.132425
C	 -0.451170	 -1.129930	 1.097049
C	 0.801727	 -1.959116	 0.945507
O	 -1.528589	 -1.897310	 1.185968
C	 1.124911	 -2.785238	 2.184071
H	 1.613075	 -1.280220	 0.700432
H	 0.669725	 -2.590969	 0.072237
H	 1.272053	 -2.149836	 3.048928
H	 2.030738	 -3.360307	 2.024106
H	 0.320287	 -3.472711	 2.414906
C	 -2.626321	 -1.404382	 1.947156
C	 -2.202153	 -1.393195	 3.400520
H	 -3.482947	 -2.044464	 1.785687
H	 -2.881197	 -0.413280	 1.597377
H	 -1.945021	 -2.392122	 3.733966
H	 -3.013088	 -1.022675	 4.019186
H	 -1.340005	 -0.751981	 3.544749

	symmetry c1
}
set optking {
	frozen_dihedral = ("
		2 4 11 13,
		4 2 3 6
	")
}

ee = energy('scf')
oeprop('DIPOLE', 'QUADRUPOLE', 'MULLIKEN_CHARGES')
f=open( 'psi4out.xyz', 'w' )
f.write( "17  " )
f.write( str(ee) + "\n" )
f.write( MOL.save_string_xyz() )
f.close()
--------------------------------------------------------------------------

  Memory set to   2.000 GiB by Python script.

*** tstart() called on cx1-3-16-4.cx1.hpc.ic.ac.uk
*** at Tue Jul  5 16:54:43 2016


         ---------------------------------------------------------
                                   SCF
            by Justin Turney, Rob Parrish, and Andy Simmonett
                              RHF Reference
                        1 Threads,   2000 MiB Core
         ---------------------------------------------------------

  ==> Geometry <==

    Molecular point group: c1
    Full point group: C1

    Geometry (in Angstrom), charge = 0, multiplicity = 1:

       Center              X                  Y                   Z               Mass       
    ------------   -----------------  -----------------  -----------------  -----------------
           O          0.288555206741     1.558078870140    -0.583049881050    15.994914619560
           C          0.325838206741     0.370180870140    -0.618425881050    12.000000000000
           C          1.578735206741    -0.459005129860    -0.769967881050    12.000000000000
           O         -0.751580793259    -0.397199129860    -0.529506881050    15.994914619560
           C          1.901919206741    -1.285127129860     0.468596118950    12.000000000000
           H          2.390083206741     0.219890870140    -1.015042881050     1.007825032070
           H          1.446733206741    -1.090858129860    -1.643237881050     1.007825032070
           H          2.049061206741    -0.649725129860     1.333453118950     1.007825032070
           H          2.807746206741    -1.860196129860     0.308631118950     1.007825032070
           H          1.097295206741    -1.972600129860     0.699431118950     1.007825032070
           C         -1.849312793259     0.095728870140     0.231681118950    12.000000000000
           C         -1.425144793259     0.106915870140     1.685045118950    12.000000000000
           H         -2.705938793259    -0.544353129860     0.070212118950     1.007825032070
           H         -2.104188793259     1.086830870140    -0.118097881050     1.007825032070
           H         -1.168012793259    -0.892011129860     2.018491118950     1.007825032070
           H         -2.236079793259     0.477435870140     2.303711118950     1.007825032070
           H         -0.562996793259     0.748129870140     1.829274118950     1.007825032070

  Running in c1 symmetry.

  Rotational constants: A =      0.12809  B =      0.06665  C =      0.05485 [cm^-1]
  Rotational constants: A =   3839.95460  B =   1998.14364  C =   1644.50750 [MHz]
  Nuclear repulsion =  325.766356074349176

  Charge       = 0
  Multiplicity = 1
  Electrons    = 56
  Nalpha       = 28
  Nbeta        = 28

  ==> Algorithm <==

  SCF Algorithm Type is DF.
  DIIS enabled.
  MOM disabled.
  Fractional occupation disabled.
  Guess Type is CORE.
  Energy threshold   = 1.00e-06
  Density threshold  = 1.00e-06
  Integral threshold = 0.00e+00

  ==> Primary Basis <==

  Basis Set: 6-31G*
    Number of shells: 62
    Number of basis function: 125
    Number of Cartesian functions: 125
    Spherical Harmonics?: false
    Max angular momentum: 2

  ==> Pre-Iterations <==

   -------------------------------------------------------
    Irrep   Nso     Nmo     Nalpha   Nbeta   Ndocc  Nsocc
   -------------------------------------------------------
     A        125     125       0       0       0       0
   -------------------------------------------------------
    Total     125     125      28      28      28       0
   -------------------------------------------------------

 OEINTS: Overlap, kinetic, potential, dipole, and quadrupole integrals
         stored in file 35.

  ==> Integral Setup <==

  ==> DFJK: Density-Fitted J/K Matrices <==

    J tasked:                  Yes
    K tasked:                  Yes
    wK tasked:                  No
    OpenMP threads:              1
    Integrals threads:           1
    Memory (MB):              1430
    Algorithm:                Core
    Integral Cache:           NONE
    Schwarz Cutoff:          1E-12
    Fitting Condition:       1E-12

   => Auxiliary Basis Set <=

  Basis Set: 
    Number of shells: 258
    Number of basis function: 817
    Number of Cartesian functions: 817
    Spherical Harmonics?: false
    Max angular momentum: 3

  Minimum eigenvalue in the overlap matrix is 3.4771241788E-03.
  Using Symmetric Orthogonalization.
  SCF Guess: Core (One-Electron) Hamiltonian.

  ==> Iterations <==

                           Total Energy        Delta E     RMS |[F,P]|

   @DF-RHF iter   1:  -238.78975159756402   -2.38790e+02   8.21737e-02 
   @DF-RHF iter   2:  -221.25582696345515    1.75339e+01   6.45746e-02 DIIS
   @DF-RHF iter   3:  -306.96972080051859   -8.57139e+01   4.49607e-02 DIIS
   @DF-RHF iter   4:  -344.26608214154766   -3.72964e+01   8.81800e-03 DIIS
   @DF-RHF iter   5:  -344.82982276966817   -5.63741e-01   2.97618e-03 DIIS
   @DF-RHF iter   6:  -344.88057566538458   -5.07529e-02   1.49412e-03 DIIS
   @DF-RHF iter   7:  -344.89775678862117   -1.71811e-02   7.08881e-04 DIIS
   @DF-RHF iter   8:  -344.90193479539408   -4.17801e-03   1.94301e-04 DIIS
   @DF-RHF iter   9:  -344.90226621548373   -3.31420e-04   7.58335e-05 DIIS
   @DF-RHF iter  10:  -344.90233068050196   -6.44650e-05   1.86837e-05 DIIS
   @DF-RHF iter  11:  -344.90233729436801   -6.61387e-06   6.06234e-06 DIIS
   @DF-RHF iter  12:  -344.90233800216123   -7.07793e-07   2.54202e-06 DIIS
   @DF-RHF iter  13:  -344.90233815360722   -1.51446e-07   1.06086e-06 DIIS
   @DF-RHF iter  14:  -344.90233819356689   -3.99597e-08   2.82585e-07 DIIS

  ==> Post-Iterations <==

    Orbital Energies (a.u.)
    -----------------------

    Doubly Occupied:                                                      

       1A    -20.596681     2A    -20.545060     3A    -11.371936  
       4A    -11.287235     5A    -11.236635     6A    -11.227489  
       7A    -11.221161     8A     -1.466999     9A     -1.361975  
      10A     -1.072361    11A     -1.031290    12A     -0.912855  
      13A     -0.867002    14A     -0.760036    15A     -0.697931  
      16A     -0.686741    17A     -0.661876    18A     -0.621763  
      19A     -0.604794    20A     -0.570661    21A     -0.563954  
      22A     -0.540874    23A     -0.530576    24A     -0.511162  
      25A     -0.503257    26A     -0.489378    27A     -0.449071  
      28A     -0.431375  

    Virtual:                                                              

      29A      0.188012    30A      0.231776    31A      0.264638  
      32A      0.278916    33A      0.281262    34A      0.302009  
      35A      0.308813    36A      0.316714    37A      0.324698  
      38A      0.330236    39A      0.359421    40A      0.377287  
      41A      0.385743    42A      0.430722    43A      0.444745  
      44A      0.523905    45A      0.567051    46A      0.679569  
      47A      0.714181    48A      0.733776    49A      0.738932  
      50A      0.739988    51A      0.786996    52A      0.793585  
      53A      0.870002    54A      0.898069    55A      0.911056  
      56A      0.923476    57A      0.958523    58A      0.986114  
      59A      1.004077    60A      1.066662    61A      1.075678  
      62A      1.099468    63A      1.130622    64A      1.139600  
      65A      1.153798    66A      1.165954    67A      1.193748  
      68A      1.196512    69A      1.203832    70A      1.224116  
      71A      1.251531    72A      1.267386    73A      1.286067  
      74A      1.321419    75A      1.365966    76A      1.394543  
      77A      1.423759    78A      1.467011    79A      1.524139  
      80A      1.644481    81A      1.698203    82A      1.711360  
      83A      1.755907    84A      1.844683    85A      1.907499  
      86A      1.917241    87A      1.948072    88A      1.999574  
      89A      2.049559    90A      2.108296    91A      2.136217  
      92A      2.177656    93A      2.198542    94A      2.233316  
      95A      2.254017    96A      2.268345    97A      2.277795  
      98A      2.346939    99A      2.390990   100A      2.446338  
     101A      2.512307   102A      2.576625   103A      2.603599  
     104A      2.614142   105A      2.667990   106A      2.674453  
     107A      2.695102   108A      2.750184   109A      2.755317  
     110A      2.862827   111A      2.933653   112A      2.966134  
     113A      2.981338   114A      3.152325   115A      3.191940  
     116A      3.358150   117A      3.405203   118A      3.541254  
     119A      4.448262   120A      4.527498   121A      4.618677  
     122A      4.670312   123A      4.754455   124A      4.861750  
     125A      4.975618  

    Final Occupation by Irrep:
              A 
    DOCC [    28 ]

  Energy converged.

  @DF-RHF Final Energy:  -344.90233819356689

   => Energetics <=

    Nuclear Repulsion Energy =            325.7663560743491757
    One-Electron Energy =               -1115.6931213964039671
    Two-Electron Energy =                 445.0244271284881847
    DFT Exchange-Correlation Energy =       0.0000000000000000
    Empirical Dispersion Energy =           0.0000000000000000
    PCM Polarization Energy =               0.0000000000000000
    EFP Energy =                            0.0000000000000000
    Total Energy =                       -344.9023381935665498

    Alert: EFP and PCM quantities not currently incorporated into SCF psivars.

Properties will be evaluated at   0.000000,   0.000000,   0.000000 Bohr
  ==> Properties <==


Properties computed using the SCF density matrix

  Nuclear Dipole Moment: (a.u.)
     X:     0.9481      Y:    -4.1919      Z:     5.4196

  Electronic Dipole Moment: (a.u.)
     X:    -1.0831      Y:     3.3632      Z:    -5.0246

  Dipole Moment: (a.u.)
     X:    -0.1350      Y:    -0.8287      Z:     0.3950     Total:     0.9279

  Dipole Moment: (Debye)
     X:    -0.3430      Y:    -2.1064      Z:     1.0041     Total:     2.3585


  Saving occupied orbitals to File 180.

*** tstop() called on cx1-3-16-4.cx1.hpc.ic.ac.uk at Tue Jul  5 16:54:55 2016
Module time:
	user time   =      11.04 seconds =       0.18 minutes
	system time =       0.07 seconds =       0.00 minutes
	total time  =         12 seconds =       0.20 minutes
Total time:
	user time   =      11.04 seconds =       0.18 minutes
	system time =       0.07 seconds =       0.00 minutes
	total time  =         12 seconds =       0.20 minutes


Properties will be evaluated at   0.000000,   0.000000,   0.000000 Bohr

Properties computed using the  density matrix

  Nuclear Dipole Moment: (a.u.)
     X:     0.9481      Y:    -4.1919      Z:     5.4196

  Electronic Dipole Moment: (a.u.)
     X:    -1.0831      Y:     3.3632      Z:    -5.0246

  Dipole Moment: (a.u.)
     X:    -0.1350      Y:    -0.8287      Z:     0.3950     Total:     0.9279

  Dipole Moment: (Debye)
     X:    -0.3430      Y:    -2.1064      Z:     1.0041     Total:     2.3585

  Quadrupole Moment: (Debye Ang)
    XX:   -37.6786     YY:   -48.8406     ZZ:   -42.7548
    XY:    -2.3340     XZ:    -1.8485     YZ:     1.4152

  Traceless Quadrupole Moment: (Debye Ang)
    XX:     5.4127     YY:    -5.7493     ZZ:     0.3365
    XY:    -2.3340     XZ:    -1.8485     YZ:     1.4152

  Mulliken Charges: (a.u.)
   Center  Symbol    Alpha    Beta     Spin     Total
       1     O     4.28121  4.28121  0.00000 -0.56242
       2     C     2.61508  2.61508  0.00000  0.76985
       3     C     3.19654  3.19654  0.00000 -0.39307
       4     O     4.30886  4.30886  0.00000 -0.61773
       5     C     3.25086  3.25086  0.00000 -0.50172
       6     H     0.40013  0.40013  0.00000  0.19974
       7     H     0.40304  0.40304  0.00000  0.19393
       8     H     0.41255  0.41255  0.00000  0.17489
       9     H     0.41101  0.41101  0.00000  0.17799
      10     H     0.40820  0.40820  0.00000  0.18359
      11     C     3.00896  3.00896  0.00000 -0.01791
      12     C     3.26073  3.26073  0.00000 -0.52147
      13     H     0.40743  0.40743  0.00000  0.18515
      14     H     0.40117  0.40117  0.00000  0.19767
      15     H     0.41361  0.41361  0.00000  0.17278
      16     H     0.41610  0.41610  0.00000  0.16780
      17     H     0.40453  0.40453  0.00000  0.19094

   Total alpha = 28.00000, Total beta = 28.00000, Total charge = -0.00000


*** PSI4 exiting successfully. Buy a developer a beer!
