    -----------------------------------------------------------------------
          Psi4: An Open-Source Ab Initio Electronic Structure Package
                              Psi4 (no tag) Driver

                          Git: Rev {detached?}  

    J. M. Turney, A. C. Simmonett, R. M. Parrish, E. G. Hohenstein,
    F. A. Evangelista, J. T. Fermann, B. J. Mintz, L. A. Burns, J. J. Wilke,
    M. L. Abrams, N. J. Russ, M. L. Leininger, C. L. Janssen, E. T. Seidl,
    W. D. Allen, H. F. Schaefer, R. A. King, E. F. Valeev, C. D. Sherrill,
    and T. D. Crawford, WIREs Comput. Mol. Sci. 2, 556-565 (2012)
    (doi: 10.1002/wcms.93)

                         Additional Contributions by
    A. E. DePrince, M. Saitow, U. Bozkaya, A. Yu. Sokolov
    -----------------------------------------------------------------------


    Psi4 started on: Tue Jul  5 16:42:57 2016

    Process ID:  19705
    PSI4DATADIR: /export131/home/mjharvey/miniconda3/share
    Memory level set to 256.000 MB

  ==> Input File <==

--------------------------------------------------------------------------
set {
	reference rhf
	basis 6-31G*
}


set_num_threads( 1 )
memory 2 gb

molecule MOL {
0 1

H	 -3.892523	 0.981699	 -0.358674
C	 -3.196493	 0.361859	 0.172364
C	 -2.076432	 -0.007246	 -0.404893
H	 -3.439525	 0.057846	 1.173075
O	 -1.180206	 -0.819177	 0.215113
H	 -1.811092	 0.292280	 -1.403429
C	 0.052032	 -1.018770	 -0.387881
C	 1.044192	 0.054948	 -0.001822
H	 -0.017192	 -1.041265	 -1.469730
H	 0.438326	 -1.966288	 -0.042233
F	 2.213024	 -0.199381	 -0.571870
F	 0.652957	 1.252533	 -0.405004
F	 1.231305	 0.110780	 1.300584

	symmetry c1
}
ee = energy('scf')
oeprop('DIPOLE', 'QUADRUPOLE', 'MULLIKEN_CHARGES')
oeprop('GRID_ESP')
f=open( 'psi4out.xyz', 'w' )
f.write( "13  " )
f.write( str(ee) + "\n" )
f.write( MOL.save_string_xyz() )
f.close()
--------------------------------------------------------------------------

  Memory set to   2.000 GiB by Python script.

*** tstart() called on cx1-3-14-4.cx1.hpc.ic.ac.uk
*** at Tue Jul  5 16:42:57 2016


         ---------------------------------------------------------
                                   SCF
            by Justin Turney, Rob Parrish, and Andy Simmonett
                              RHF Reference
                        1 Threads,   2000 MiB Core
         ---------------------------------------------------------

  ==> Geometry <==

    Molecular point group: c1
    Full point group: C1

    Geometry (in Angstrom), charge = 0, multiplicity = 1:

       Center              X                  Y                   Z               Mass       
    ------------   -----------------  -----------------  -----------------  -----------------
           H         -3.892950911553     0.981613030571    -0.358725352002     1.007825032070
           C         -3.196920911553     0.361773030571     0.172312647998    12.000000000000
           C         -2.076859911553    -0.007331969429    -0.404944352002    12.000000000000
           H         -3.439952911553     0.057760030571     1.173023647998     1.007825032070
           O         -1.180633911553    -0.819262969429     0.215061647998    15.994914619560
           H         -1.811519911553     0.292194030571    -1.403480352002     1.007825032070
           C          0.051604088447    -1.018855969429    -0.387932352002    12.000000000000
           C          1.043764088447     0.054862030571    -0.001873352002    12.000000000000
           H         -0.017619911553    -1.041350969429    -1.469781352002     1.007825032070
           H          0.437898088447    -1.966373969429    -0.042284352002     1.007825032070
           F          2.212596088447    -0.199466969429    -0.571921352002    18.998403224000
           F          0.652529088447     1.252447030571    -0.405055352002    18.998403224000
           F          1.230877088447     0.110694030571     1.300532647998    18.998403224000

  Running in c1 symmetry.

  Rotational constants: A =      0.14848  B =      0.03991  C =      0.03901 [cm^-1]
  Rotational constants: A =   4451.36991  B =   1196.46076  C =   1169.44034 [MHz]
  Nuclear repulsion =  413.524540702298168

  Charge       = 0
  Multiplicity = 1
  Electrons    = 64
  Nalpha       = 32
  Nbeta        = 32

  ==> Algorithm <==

  SCF Algorithm Type is DF.
  DIIS enabled.
  MOM disabled.
  Fractional occupation disabled.
  Guess Type is CORE.
  Energy threshold   = 1.00e-06
  Density threshold  = 1.00e-06
  Integral threshold = 0.00e+00

  ==> Primary Basis <==

  Basis Set: 6-31G*
    Number of shells: 58
    Number of basis function: 130
    Number of Cartesian functions: 130
    Spherical Harmonics?: false
    Max angular momentum: 2

  ==> Pre-Iterations <==

   -------------------------------------------------------
    Irrep   Nso     Nmo     Nalpha   Nbeta   Ndocc  Nsocc
   -------------------------------------------------------
     A        130     130       0       0       0       0
   -------------------------------------------------------
    Total     130     130      32      32      32       0
   -------------------------------------------------------

 OEINTS: Overlap, kinetic, potential, dipole, and quadrupole integrals
         stored in file 35.

  ==> Integral Setup <==

  ==> DFJK: Density-Fitted J/K Matrices <==

    J tasked:                  Yes
    K tasked:                  Yes
    wK tasked:                  No
    OpenMP threads:              1
    Integrals threads:           1
    Memory (MB):              1430
    Algorithm:                Core
    Integral Cache:           NONE
    Schwarz Cutoff:          1E-12
    Fitting Condition:       1E-12

   => Auxiliary Basis Set <=

  Basis Set: 
    Number of shells: 237
    Number of basis function: 773
    Number of Cartesian functions: 773
    Spherical Harmonics?: false
    Max angular momentum: 3

  Minimum eigenvalue in the overlap matrix is 1.8726435149E-03.
  Using Symmetric Orthogonalization.
  SCF Guess: Core (One-Electron) Hamiltonian.

  ==> Iterations <==

                           Total Energy        Delta E     RMS |[F,P]|

   @DF-RHF iter   1:  -439.89892688292684   -4.39899e+02   7.39495e-02 
   @DF-RHF iter   2:  -175.68472103381737    2.64214e+02   9.74480e-02 DIIS
   @DF-RHF iter   3:  -490.91486498180257   -3.15230e+02   3.96726e-02 DIIS
   @DF-RHF iter   4:  -405.14329248134493    8.57716e+01   7.62113e-02 DIIS
   @DF-RHF iter   5:  -519.37581563164861   -1.14233e+02   2.12270e-02 DIIS
   @DF-RHF iter   6:  -526.78136090058865   -7.40555e+00   1.03106e-02 DIIS
   @DF-RHF iter   7:  -527.48329527442854   -7.01934e-01   2.37132e-03 DIIS
   @DF-RHF iter   8:  -527.52140255885945   -3.81073e-02   1.15094e-03 DIIS
   @DF-RHF iter   9:  -527.53240923803014   -1.10067e-02   5.54377e-04 DIIS
   @DF-RHF iter  10:  -527.53501755421041   -2.60832e-03   2.73576e-04 DIIS
   @DF-RHF iter  11:  -527.53587254474212   -8.54991e-04   5.52050e-05 DIIS
   @DF-RHF iter  12:  -527.53590833299393   -3.57883e-05   1.99077e-05 DIIS
   @DF-RHF iter  13:  -527.53591501272342   -6.67973e-06   8.21679e-06 DIIS
   @DF-RHF iter  14:  -527.53591608460113   -1.07188e-06   2.11496e-06 DIIS
   @DF-RHF iter  15:  -527.53591619297561   -1.08374e-07   8.05788e-07 DIIS

  ==> Post-Iterations <==

    Orbital Energies (a.u.)
    -----------------------

    Doubly Occupied:                                                      

       1A    -26.344643     2A    -26.343731     3A    -26.340603  
       4A    -20.608446     5A    -11.503188     6A    -11.318975  
       7A    -11.299429     8A    -11.215755     9A     -1.741774  
      10A     -1.639892    11A     -1.638295    12A     -1.438305  
      13A     -1.084247    14A     -1.016471    15A     -0.925363  
      16A     -0.836595    17A     -0.831005    18A     -0.821300  
      19A     -0.791853    20A     -0.721874    21A     -0.711362  
      22A     -0.696467    23A     -0.675883    24A     -0.660412  
      25A     -0.654681    26A     -0.643142    27A     -0.634303  
      28A     -0.584680    29A     -0.563099    30A     -0.523976  
      31A     -0.514144    32A     -0.351442  

    Virtual:                                                              

      33A      0.190985    34A      0.235249    35A      0.272098  
      36A      0.280646    37A      0.296258    38A      0.314105  
      39A      0.344644    40A      0.411329    41A      0.415567  
      42A      0.452688    43A      0.474962    44A      0.507864  
      45A      0.515613    46A      0.689698    47A      0.701032  
      48A      0.711911    49A      0.741432    50A      0.755561  
      51A      0.770030    52A      0.807998    53A      0.831415  
      54A      0.877507    55A      0.911200    56A      0.923026  
      57A      0.980168    58A      1.080462    59A      1.099320  
      60A      1.129235    61A      1.149675    62A      1.161629  
      63A      1.203710    64A      1.238541    65A      1.277207  
      66A      1.330402    67A      1.361666    68A      1.366723  
      69A      1.410753    70A      1.427388    71A      1.452980  
      72A      1.471147    73A      1.592921    74A      1.613096  
      75A      1.631324    76A      1.639649    77A      1.663428  
      78A      1.673929    79A      1.694051    80A      1.697342  
      81A      1.747524    82A      1.805992    83A      1.849150  
      84A      1.906739    85A      1.948802    86A      1.956473  
      87A      2.015876    88A      2.032098    89A      2.109876  
      90A      2.120882    91A      2.140838    92A      2.147872  
      93A      2.229337    94A      2.248694    95A      2.282942  
      96A      2.294843    97A      2.318280    98A      2.324736  
      99A      2.369056   100A      2.398765   101A      2.413628  
     102A      2.424718   103A      2.498513   104A      2.527489  
     105A      2.556447   106A      2.591258   107A      2.656922  
     108A      2.670829   109A      2.736671   110A      2.822177  
     111A      2.852044   112A      2.902499   113A      2.994788  
     114A      3.100908   115A      3.146284   116A      3.177792  
     117A      3.225047   118A      3.293376   119A      3.414572  
     120A      3.428691   121A      3.444322   122A      3.481401  
     123A      4.361573   124A      4.542117   125A      4.619238  
     126A      4.704030   127A      4.900253   128A      4.943656  
     129A      5.131896   130A      5.747657  

    Final Occupation by Irrep:
              A 
    DOCC [    32 ]

  Energy converged.

  @DF-RHF Final Energy:  -527.53591619297561

   => Energetics <=

    Nuclear Repulsion Energy =            413.5245407022981681
    One-Electron Energy =               -1550.7701096402151961
    Two-Electron Energy =                 609.7096527449411951
    DFT Exchange-Correlation Energy =       0.0000000000000000
    Empirical Dispersion Energy =           0.0000000000000000
    PCM Polarization Energy =               0.0000000000000000
    EFP Energy =                            0.0000000000000000
    Total Energy =                       -527.5359161929759466

    Alert: EFP and PCM quantities not currently incorporated into SCF psivars.

Properties will be evaluated at   0.000000,   0.000000,   0.000000 Bohr
  ==> Properties <==


Properties computed using the SCF density matrix

  Nuclear Dipole Moment: (a.u.)
     X:   -12.0483      Y:    -2.6730      Z:    -2.2741

  Electronic Dipole Moment: (a.u.)
     X:    11.8043      Y:     2.2827      Z:     1.5792

  Dipole Moment: (a.u.)
     X:    -0.2439      Y:    -0.3904      Z:    -0.6948     Total:     0.8335

  Dipole Moment: (Debye)
     X:    -0.6200      Y:    -0.9922      Z:    -1.7661     Total:     2.1185


  Saving occupied orbitals to File 180.

*** tstop() called on cx1-3-14-4.cx1.hpc.ic.ac.uk at Tue Jul  5 16:43:07 2016
Module time:
	user time   =       9.47 seconds =       0.16 minutes
	system time =       0.06 seconds =       0.00 minutes
	total time  =         10 seconds =       0.17 minutes
Total time:
	user time   =       9.47 seconds =       0.16 minutes
	system time =       0.06 seconds =       0.00 minutes
	total time  =         10 seconds =       0.17 minutes


Properties will be evaluated at   0.000000,   0.000000,   0.000000 Bohr

Properties computed using the  density matrix

  Nuclear Dipole Moment: (a.u.)
     X:   -12.0483      Y:    -2.6730      Z:    -2.2741

  Electronic Dipole Moment: (a.u.)
     X:    11.8043      Y:     2.2827      Z:     1.5792

  Dipole Moment: (a.u.)
     X:    -0.2439      Y:    -0.3904      Z:    -0.6948     Total:     0.8335

  Dipole Moment: (Debye)
     X:    -0.6200      Y:    -0.9922      Z:    -1.7661     Total:     2.1185

  Quadrupole Moment: (Debye Ang)
    XX:   -45.8863     YY:   -44.3599     ZZ:   -43.3958
    XY:    -3.1398     XZ:     1.0295     YZ:     0.5144

  Traceless Quadrupole Moment: (Debye Ang)
    XX:    -1.3390     YY:     0.1874     ZZ:     1.1516
    XY:    -3.1398     XZ:     1.0295     YZ:     0.5144

  Mulliken Charges: (a.u.)
   Center  Symbol    Alpha    Beta     Spin     Total
       1     H     0.40707  0.40707  0.00000  0.18585
       2     C     3.23566  3.23566  0.00000 -0.47132
       3     C     2.89525  2.89525  0.00000  0.20951
       4     H     0.40181  0.40181  0.00000  0.19638
       5     O     4.30165  4.30165  0.00000 -0.60330
       6     H     0.40678  0.40678  0.00000  0.18644
       7     C     3.06397  3.06397  0.00000 -0.12795
       8     C     2.45565  2.45565  0.00000  1.08870
       9     H     0.40553  0.40553  0.00000  0.18894
      10     H     0.38974  0.38974  0.00000  0.22052
      11     F     4.68281  4.68281  0.00000 -0.36563
      12     F     4.67960  4.67960  0.00000 -0.35920
      13     F     4.67447  4.67447  0.00000 -0.34893

   Total alpha = 32.00000, Total beta = 32.00000, Total charge =  0.00000



Properties will be evaluated at   0.000000,   0.000000,   0.000000 Bohr

Properties computed using the  density matrix


 Electrostatic potential computed on the grid and written to grid_esp.dat

*** PSI4 exiting successfully. Buy a developer a beer!
