    -----------------------------------------------------------------------
          Psi4: An Open-Source Ab Initio Electronic Structure Package
                              Psi4 (no tag) Driver

                          Git: Rev {detached?}  

    J. M. Turney, A. C. Simmonett, R. M. Parrish, E. G. Hohenstein,
    F. A. Evangelista, J. T. Fermann, B. J. Mintz, L. A. Burns, J. J. Wilke,
    M. L. Abrams, N. J. Russ, M. L. Leininger, C. L. Janssen, E. T. Seidl,
    W. D. Allen, H. F. Schaefer, R. A. King, E. F. Valeev, C. D. Sherrill,
    and T. D. Crawford, WIREs Comput. Mol. Sci. 2, 556-565 (2012)
    (doi: 10.1002/wcms.93)

                         Additional Contributions by
    A. E. DePrince, M. Saitow, U. Bozkaya, A. Yu. Sokolov
    -----------------------------------------------------------------------


    Psi4 started on: Tue Jul  5 16:26:14 2016

    Process ID:   3063
    PSI4DATADIR: /export131/home/mjharvey/miniconda3/share
    Memory level set to 256.000 MB

  ==> Input File <==

--------------------------------------------------------------------------
set {
	reference rhf
	basis 6-31G*
}


set_num_threads( 1 )
memory 2 gb

molecule MOL {
0 1

H	 -1.362287	 1.360230	 0.008573
C	 -0.790216	 0.431243	 0.010564
N	 0.538815	 0.649616	 0.000000
O	 -1.322490	 -0.639170	 0.021078
C	 1.521968	 -0.411503	 0.000000
H	 0.852775	 1.592826	 -0.008195
H	 2.150599	 -0.357004	 -0.881901
H	 0.999455	 -1.354525	 0.000000
H	 2.150599	 -0.357004	 0.881901

	symmetry c1
}
set optking {
	frozen_dihedral = ("
		1 2 3 6
	")
}

ee = energy('scf')
oeprop('DIPOLE', 'QUADRUPOLE', 'MULLIKEN_CHARGES')
f=open( 'psi4out.xyz', 'w' )
f.write( "9  " )
f.write( str(ee) + "\n" )
f.write( MOL.save_string_xyz() )
f.close()
--------------------------------------------------------------------------

  Memory set to   2.000 GiB by Python script.

*** tstart() called on cx1-1-4-3.cx1.hpc.ic.ac.uk
*** at Tue Jul  5 16:26:14 2016


         ---------------------------------------------------------
                                   SCF
            by Justin Turney, Rob Parrish, and Andy Simmonett
                              RHF Reference
                        1 Threads,   2000 MiB Core
         ---------------------------------------------------------

  ==> Geometry <==

    Molecular point group: c1
    Full point group: C1

    Geometry (in Angstrom), charge = 0, multiplicity = 1:

       Center              X                  Y                   Z               Mass       
    ------------   -----------------  -----------------  -----------------  -----------------
           H         -1.362314228916     1.360205002739     0.000708628955     1.007825032070
           C         -0.790243228916     0.431218002739     0.002699628955    12.000000000000
           N          0.538787771084     0.649591002739    -0.007864371045    14.003074004780
           O         -1.322517228916    -0.639194997261     0.013213628955    15.994914619560
           C          1.521940771084    -0.411527997261    -0.007864371045    12.000000000000
           H          0.852747771084     1.592801002739    -0.016059371045     1.007825032070
           H          2.150571771084    -0.357028997261    -0.889765371045     1.007825032070
           H          0.999427771084    -1.354549997261    -0.007864371045     1.007825032070
           H          2.150571771084    -0.357028997261     0.874036628955     1.007825032070

  Running in c1 symmetry.

  Rotational constants: A =      0.68525  B =      0.20549  C =      0.16287 [cm^-1]
  Rotational constants: A =  20543.17045  B =   6160.36100  C =   4882.76027 [MHz]
  Nuclear repulsion =  122.446265574440190

  Charge       = 0
  Multiplicity = 1
  Electrons    = 32
  Nalpha       = 16
  Nbeta        = 16

  ==> Algorithm <==

  SCF Algorithm Type is DF.
  DIIS enabled.
  MOM disabled.
  Fractional occupation disabled.
  Guess Type is CORE.
  Energy threshold   = 1.00e-06
  Density threshold  = 1.00e-06
  Integral threshold = 0.00e+00

  ==> Primary Basis <==

  Basis Set: 6-31G*
    Number of shells: 34
    Number of basis function: 70
    Number of Cartesian functions: 70
    Spherical Harmonics?: false
    Max angular momentum: 2

  ==> Pre-Iterations <==

   -------------------------------------------------------
    Irrep   Nso     Nmo     Nalpha   Nbeta   Ndocc  Nsocc
   -------------------------------------------------------
     A         70      70       0       0       0       0
   -------------------------------------------------------
    Total      70      70      16      16      16       0
   -------------------------------------------------------

 OEINTS: Overlap, kinetic, potential, dipole, and quadrupole integrals
         stored in file 35.

  ==> Integral Setup <==

  ==> DFJK: Density-Fitted J/K Matrices <==

    J tasked:                  Yes
    K tasked:                  Yes
    wK tasked:                  No
    OpenMP threads:              1
    Integrals threads:           1
    Memory (MB):              1430
    Algorithm:                Core
    Integral Cache:           NONE
    Schwarz Cutoff:          1E-12
    Fitting Condition:       1E-12

   => Auxiliary Basis Set <=

  Basis Set: 
    Number of shells: 141
    Number of basis function: 449
    Number of Cartesian functions: 449
    Spherical Harmonics?: false
    Max angular momentum: 3

  Minimum eigenvalue in the overlap matrix is 4.6316012717E-03.
  Using Symmetric Orthogonalization.
  SCF Guess: Core (One-Electron) Hamiltonian.

  ==> Iterations <==

                           Total Energy        Delta E     RMS |[F,P]|

   @DF-RHF iter   1:  -166.89507550615781   -1.66895e+02   9.45768e-02 
   @DF-RHF iter   2:  -130.44222165295412    3.64529e+01   8.30675e-02 DIIS
   @DF-RHF iter   3:  -190.14208848671535   -5.96999e+01   5.36347e-02 DIIS
   @DF-RHF iter   4:  -207.14679528232432   -1.70047e+01   1.85272e-02 DIIS
   @DF-RHF iter   5:  -207.89945526481131   -7.52660e-01   5.37172e-03 DIIS
   @DF-RHF iter   6:  -207.95853560540536   -5.90803e-02   8.81925e-04 DIIS
   @DF-RHF iter   7:  -207.96075373481358   -2.21813e-03   2.03999e-04 DIIS
   @DF-RHF iter   8:  -207.96094640021113   -1.92665e-04   7.01012e-05 DIIS
   @DF-RHF iter   9:  -207.96096505313108   -1.86529e-05   3.57385e-05 DIIS
   @DF-RHF iter  10:  -207.96096924059111   -4.18746e-06   1.96840e-05 DIIS
   @DF-RHF iter  11:  -207.96097071657437   -1.47598e-06   8.27228e-06 DIIS
   @DF-RHF iter  12:  -207.96097095171297   -2.35139e-07   1.51180e-06 DIIS
   @DF-RHF iter  13:  -207.96097096574283   -1.40299e-08   5.23293e-07 DIIS

  ==> Post-Iterations <==

    Orbital Energies (a.u.)
    -----------------------

    Doubly Occupied:                                                      

       1A    -20.525166     2A    -15.591264     3A    -11.344430  
       4A    -11.260144     5A     -1.388825     6A     -1.236627  
       7A     -0.968840     8A     -0.807259     9A     -0.746539  
      10A     -0.641678    11A     -0.626084    12A     -0.593576  
      13A     -0.553781    14A     -0.537903    15A     -0.423553  
      16A     -0.390305  

    Virtual:                                                              

      17A      0.213537    18A      0.223253    19A      0.267809  
      20A      0.292666    21A      0.320453    22A      0.329396  
      23A      0.385352    24A      0.444726    25A      0.562297  
      26A      0.712986    27A      0.719193    28A      0.778081  
      29A      0.822229    30A      0.845021    31A      0.946158  
      32A      0.992910    33A      1.018833    34A      1.072883  
      35A      1.091860    36A      1.118195    37A      1.142052  
      38A      1.190538    39A      1.201130    40A      1.224658  
      41A      1.320205    42A      1.320813    43A      1.445993  
      44A      1.570537    45A      1.613297    46A      1.619413  
      47A      1.736155    48A      1.798077    49A      1.870268  
      50A      2.062627    51A      2.129213    52A      2.143490  
      53A      2.212646    54A      2.336905    55A      2.370044  
      56A      2.422932    57A      2.596369    58A      2.651988  
      59A      2.663164    60A      2.683011    61A      2.803810  
      62A      2.938246    63A      3.036865    64A      3.124130  
      65A      3.327128    66A      3.493912    67A      4.250554  
      68A      4.396437    69A      4.580970    70A      4.735200  

    Final Occupation by Irrep:
              A 
    DOCC [    16 ]

  Energy converged.

  @DF-RHF Final Energy:  -207.96097096574283

   => Energetics <=

    Nuclear Repulsion Energy =            122.4462655744401900
    One-Electron Energy =                -525.5425535403780941
    Two-Electron Energy =                 195.1353170001951582
    DFT Exchange-Correlation Energy =       0.0000000000000000
    Empirical Dispersion Energy =           0.0000000000000000
    PCM Polarization Energy =               0.0000000000000000
    EFP Energy =                            0.0000000000000000
    Total Energy =                       -207.9609709657427459

    Alert: EFP and PCM quantities not currently incorporated into SCF psivars.

Properties will be evaluated at   0.000000,   0.000000,   0.000000 Bohr
  ==> Properties <==


Properties computed using the SCF density matrix

  Nuclear Dipole Moment: (a.u.)
     X:     4.4835      Y:     0.8241      Z:    -0.0364

  Electronic Dipole Moment: (a.u.)
     X:    -3.3633      Y:     0.3055      Z:     0.0207

  Dipole Moment: (a.u.)
     X:     1.1202      Y:     1.1296      Z:    -0.0157     Total:     1.5910

  Dipole Moment: (Debye)
     X:     2.8474      Y:     2.8712      Z:    -0.0398     Total:     4.0439


  Saving occupied orbitals to File 180.

*** tstop() called on cx1-1-4-3.cx1.hpc.ic.ac.uk at Tue Jul  5 16:26:17 2016
Module time:
	user time   =       2.41 seconds =       0.04 minutes
	system time =       0.02 seconds =       0.00 minutes
	total time  =          3 seconds =       0.05 minutes
Total time:
	user time   =       2.41 seconds =       0.04 minutes
	system time =       0.02 seconds =       0.00 minutes
	total time  =          3 seconds =       0.05 minutes


Properties will be evaluated at   0.000000,   0.000000,   0.000000 Bohr

Properties computed using the  density matrix

  Nuclear Dipole Moment: (a.u.)
     X:     4.4835      Y:     0.8241      Z:    -0.0364

  Electronic Dipole Moment: (a.u.)
     X:    -3.3633      Y:     0.3055      Z:     0.0207

  Dipole Moment: (a.u.)
     X:     1.1202      Y:     1.1296      Z:    -0.0157     Total:     1.5910

  Dipole Moment: (Debye)
     X:     2.8474      Y:     2.8712      Z:    -0.0398     Total:     4.0439

  Quadrupole Moment: (Debye Ang)
    XX:   -25.2640     YY:   -21.8452     ZZ:   -24.7156
    XY:    -2.9465     XZ:     0.0192     YZ:     0.0052

  Traceless Quadrupole Moment: (Debye Ang)
    XX:    -1.3224     YY:     2.0964     ZZ:    -0.7740
    XY:    -2.9465     XZ:     0.0192     YZ:     0.0052

  Mulliken Charges: (a.u.)
   Center  Symbol    Alpha    Beta     Spin     Total
       1     H     0.42760  0.42760  0.00000  0.14480
       2     C     2.74438  2.74438  0.00000  0.51125
       3     N     3.87517  3.87517  0.00000 -0.75034
       4     O     4.28472  4.28472  0.00000 -0.56943
       5     C     3.14491  3.14491  0.00000 -0.28982
       6     H     0.30958  0.30958  0.00000  0.38085
       7     H     0.41404  0.41404  0.00000  0.17191
       8     H     0.38562  0.38562  0.00000  0.22876
       9     H     0.41399  0.41399  0.00000  0.17202

   Total alpha = 16.00000, Total beta = 16.00000, Total charge = -0.00000


*** PSI4 exiting successfully. Buy a developer a beer!
