    -----------------------------------------------------------------------
          Psi4: An Open-Source Ab Initio Electronic Structure Package
                              Psi4 (no tag) Driver

                          Git: Rev {detached?}  

    J. M. Turney, A. C. Simmonett, R. M. Parrish, E. G. Hohenstein,
    F. A. Evangelista, J. T. Fermann, B. J. Mintz, L. A. Burns, J. J. Wilke,
    M. L. Abrams, N. J. Russ, M. L. Leininger, C. L. Janssen, E. T. Seidl,
    W. D. Allen, H. F. Schaefer, R. A. King, E. F. Valeev, C. D. Sherrill,
    and T. D. Crawford, WIREs Comput. Mol. Sci. 2, 556-565 (2012)
    (doi: 10.1002/wcms.93)

                         Additional Contributions by
    A. E. DePrince, M. Saitow, U. Bozkaya, A. Yu. Sokolov
    -----------------------------------------------------------------------


    Psi4 started on: Tue Jul  5 17:02:50 2016

    Process ID:  26823
    PSI4DATADIR: /export131/home/mjharvey/miniconda3/share
    Memory level set to 256.000 MB

  ==> Input File <==

--------------------------------------------------------------------------
set {
	reference rhf
	basis 6-31G*
}


set_num_threads( 1 )
memory 2 gb

molecule MOL {
0 1

H	 0.387814	 1.021263	 -3.811708
O	 0.120259	 0.340651	 -4.411919
C	 0.810891	 -0.847344	 -4.119091
C	 0.327524	 -1.524312	 -2.841282
H	 0.643260	 -1.501400	 -4.965132
H	 1.882703	 -0.660898	 -4.062195
C	 0.562168	 -0.699902	 -1.573150
H	 -0.732631	 -1.740246	 -2.945252
H	 0.838789	 -2.481233	 -2.750297
C	 0.115918	 -1.429151	 -0.302766
H	 0.028977	 0.243033	 -1.656500
H	 1.621295	 -0.455225	 -1.491146
C	 0.579824	 -2.886769	 -0.200376
H	 0.466159	 -0.878040	 0.568127
H	 -0.970893	 -1.409739	 -0.256245
C	 0.727785	 -3.417141	 1.228361
H	 -0.136855	 -3.511425	 -0.729518
H	 1.526011	 -3.000648	 -0.727253
C	 1.089510	 -4.903113	 1.278129
H	 -0.203924	 -3.256926	 1.769064
H	 1.489685	 -2.852392	 1.760217
C	 1.244105	 -5.433542	 2.703053
H	 0.324002	 -5.477389	 0.760738
H	 2.015148	 -5.066637	 0.730097
H	 0.323796	 -5.314109	 3.267847
H	 1.498359	 -6.488998	 2.704892
H	 2.028698	 -4.903778	 3.236090

	symmetry c1
}
set optking {
	frozen_dihedral = ("
		14 10 7 4,
		10 7 4 8,
		8 4 3 2,
		10 13 16 20,
		20 16 19 22,
		4 3 2 1
	")
}

ee = energy('scf')
oeprop('DIPOLE', 'QUADRUPOLE', 'MULLIKEN_CHARGES')
f=open( 'psi4out.xyz', 'w' )
f.write( "27  " )
f.write( str(ee) + "\n" )
f.write( MOL.save_string_xyz() )
f.close()
--------------------------------------------------------------------------

  Memory set to   2.000 GiB by Python script.

*** tstart() called on cx1-3-4-2.cx1.hpc.ic.ac.uk
*** at Tue Jul  5 17:02:51 2016


         ---------------------------------------------------------
                                   SCF
            by Justin Turney, Rob Parrish, and Andy Simmonett
                              RHF Reference
                        1 Threads,   2000 MiB Core
         ---------------------------------------------------------

  ==> Geometry <==

    Molecular point group: c1
    Full point group: C1

    Geometry (in Angstrom), charge = 0, multiplicity = 1:

       Center              X                  Y                   Z               Mass       
    ------------   -----------------  -----------------  -----------------  -----------------
           H         -0.231144120840     3.298537945368    -2.849949435693     1.007825032070
           O         -0.498699120840     2.617925945368    -3.450160435693    15.994914619560
           C          0.191932879160     1.429930945368    -3.157332435693    12.000000000000
           C         -0.291434120840     0.752962945368    -1.879523435693    12.000000000000
           H          0.024301879160     0.775874945368    -4.003373435693     1.007825032070
           H          1.263744879160     1.616376945368    -3.100436435693     1.007825032070
           C         -0.056790120840     1.577372945368    -0.611391435693    12.000000000000
           H         -1.351589120840     0.537028945368    -1.983493435693     1.007825032070
           H          0.219830879160    -0.203958054632    -1.788538435693     1.007825032070
           C         -0.503040120840     0.848123945368     0.658992564307    12.000000000000
           H         -0.589981120840     2.520307945368    -0.694741435693     1.007825032070
           H          1.002336879160     1.822049945368    -0.529387435693     1.007825032070
           C         -0.039134120840    -0.609494054632     0.761382564307    12.000000000000
           H         -0.152799120840     1.399234945368     1.529885564307     1.007825032070
           H         -1.589851120840     0.867535945368     0.705513564307     1.007825032070
           C          0.108826879160    -1.139866054632     2.190119564307    12.000000000000
           H         -0.755813120840    -1.234150054632     0.232240564307     1.007825032070
           H          0.907052879160    -0.723373054632     0.234505564307     1.007825032070
           C          0.470551879160    -2.625838054632     2.239887564307    12.000000000000
           H         -0.822882120840    -0.979651054632     2.730822564307     1.007825032070
           H          0.870726879160    -0.575117054632     2.721975564307     1.007825032070
           C          0.625146879160    -3.156267054632     3.664811564307    12.000000000000
           H         -0.294956120840    -3.200114054632     1.722496564307     1.007825032070
           H          1.396189879160    -2.789362054632     1.691855564307     1.007825032070
           H         -0.295162120840    -3.036834054632     4.229605564307     1.007825032070
           H          0.879400879160    -4.211723054632     3.666650564307     1.007825032070
           H          1.409739879160    -2.626503054632     4.197848564307     1.007825032070

  Running in c1 symmetry.

  Rotational constants: A =      0.18827  B =      0.01397  C =      0.01336 [cm^-1]
  Rotational constants: A =   5644.30991  B =    418.79323  C =    400.62183 [MHz]
  Nuclear repulsion =  458.552189066641404

  Charge       = 0
  Multiplicity = 1
  Electrons    = 74
  Nalpha       = 37
  Nbeta        = 37

  ==> Algorithm <==

  SCF Algorithm Type is DF.
  DIIS enabled.
  MOM disabled.
  Fractional occupation disabled.
  Guess Type is CORE.
  Energy threshold   = 1.00e-06
  Density threshold  = 1.00e-06
  Integral threshold = 0.00e+00

  ==> Primary Basis <==

  Basis Set: 6-31G*
    Number of shells: 90
    Number of basis function: 171
    Number of Cartesian functions: 171
    Spherical Harmonics?: false
    Max angular momentum: 2

  ==> Pre-Iterations <==

   -------------------------------------------------------
    Irrep   Nso     Nmo     Nalpha   Nbeta   Ndocc  Nsocc
   -------------------------------------------------------
     A        171     171       0       0       0       0
   -------------------------------------------------------
    Total     171     171      37      37      37       0
   -------------------------------------------------------

 OEINTS: Overlap, kinetic, potential, dipole, and quadrupole integrals
         stored in file 35.

  ==> Integral Setup <==

  ==> DFJK: Density-Fitted J/K Matrices <==

    J tasked:                  Yes
    K tasked:                  Yes
    wK tasked:                  No
    OpenMP threads:              1
    Integrals threads:           1
    Memory (MB):              1430
    Algorithm:                Core
    Integral Cache:           NONE
    Schwarz Cutoff:          1E-12
    Fitting Condition:       1E-12

   => Auxiliary Basis Set <=

  Basis Set: 
    Number of shells: 378
    Number of basis function: 1179
    Number of Cartesian functions: 1179
    Spherical Harmonics?: false
    Max angular momentum: 3

  Minimum eigenvalue in the overlap matrix is 2.9624665788E-03.
  Using Symmetric Orthogonalization.
  SCF Guess: Core (One-Electron) Hamiltonian.

  ==> Iterations <==

                           Total Energy        Delta E     RMS |[F,P]|

   @DF-RHF iter   1:  -287.67788248362558   -2.87678e+02   5.80730e-02 
   @DF-RHF iter   2:    20.14969488849010    3.07828e+02   6.72113e-02 DIIS
   @DF-RHF iter   3:  -255.88189989541411   -2.76032e+02   5.18243e-02 DIIS
   @DF-RHF iter   4:  -237.18970884669557    1.86922e+01   6.57119e-02 DIIS
   @DF-RHF iter   5:  -374.37568239276322   -1.37186e+02   1.60694e-02 DIIS
   @DF-RHF iter   6:  -288.29585067125208    8.60798e+01   5.45615e-02 DIIS
   @DF-RHF iter   7:  -363.51520097603031   -7.52194e+01   2.60847e-02 DIIS
   @DF-RHF iter   8:  -387.99716950882896   -2.44820e+01   4.07799e-03 DIIS
   @DF-RHF iter   9:  -388.24246756321236   -2.45298e-01   1.27684e-03 DIIS
   @DF-RHF iter  10:  -388.26823219995958   -2.57646e-02   6.45238e-04 DIIS
   @DF-RHF iter  11:  -388.27460685452240   -6.37465e-03   3.60236e-04 DIIS
   @DF-RHF iter  12:  -388.27718362680423   -2.57677e-03   1.14530e-04 DIIS
   @DF-RHF iter  13:  -388.27747329818339   -2.89671e-04   4.52533e-05 DIIS
   @DF-RHF iter  14:  -388.27752021215622   -4.69140e-05   9.44724e-06 DIIS
   @DF-RHF iter  15:  -388.27752262151648   -2.40936e-06   1.83796e-06 DIIS
   @DF-RHF iter  16:  -388.27752272282646   -1.01310e-07   4.83684e-07 DIIS

  ==> Post-Iterations <==

    Orbital Energies (a.u.)
    -----------------------

    Doubly Occupied:                                                      

       1A    -20.551839     2A    -11.266592     3A    -11.220697  
       4A    -11.216606     5A    -11.215929     6A    -11.215168  
       7A    -11.214583     8A    -11.213744     9A    -11.209290  
      10A     -1.358634    11A     -1.096016    12A     -1.062030  
      13A     -1.008158    14A     -0.951944    15A     -0.882351  
      16A     -0.833380    17A     -0.796699    18A     -0.771543  
      19A     -0.693695    20A     -0.655593    21A     -0.635200  
      22A     -0.616312    23A     -0.604452    24A     -0.582573  
      25A     -0.574554    26A     -0.553977    27A     -0.536245  
      28A     -0.527001    29A     -0.515734    30A     -0.502024  
      31A     -0.482466    32A     -0.471771    33A     -0.467250  
      34A     -0.456013    35A     -0.447998    36A     -0.441668  
      37A     -0.425518  

    Virtual:                                                              

      38A      0.219790    39A      0.229540    40A      0.247898  
      41A      0.255301    42A      0.264841    43A      0.282128  
      44A      0.290606    45A      0.295430    46A      0.313189  
      47A      0.319035    48A      0.328072    49A      0.330707  
      50A      0.338748    51A      0.345141    52A      0.349914  
      53A      0.354083    54A      0.365829    55A      0.378039  
      56A      0.401384    57A      0.406346    58A      0.426771  
      59A      0.429572    60A      0.448292    61A      0.473551  
      62A      0.481060    63A      0.506301    64A      0.701834  
      65A      0.711608    66A      0.718042    67A      0.740690  
      68A      0.753183    69A      0.758334    70A      0.773043  
      71A      0.808082    72A      0.821204    73A      0.836059  
      74A      0.846799    75A      0.900553    76A      0.930309  
      77A      0.945746    78A      0.958170    79A      0.970147  
      80A      0.986313    81A      0.998001    82A      1.015330  
      83A      1.068477    84A      1.076113    85A      1.097091  
      86A      1.118334    87A      1.130196    88A      1.148787  
      89A      1.158691    90A      1.167780    91A      1.173815  
      92A      1.180743    93A      1.187037    94A      1.192068  
      95A      1.197424    96A      1.201457    97A      1.212210  
      98A      1.214376    99A      1.218134   100A      1.219616  
     101A      1.233907   102A      1.257126   103A      1.261613  
     104A      1.282779   105A      1.305886   106A      1.317058  
     107A      1.383972   108A      1.418353   109A      1.445739  
     110A      1.517527   111A      1.562154   112A      1.631643  
     113A      1.673137   114A      1.693197   115A      1.697089  
     116A      1.758182   117A      1.777590   118A      1.817562  
     119A      1.868736   120A      1.901880   121A      1.953548  
     122A      1.980977   123A      2.024387   124A      2.059157  
     125A      2.116392   126A      2.129622   127A      2.137677  
     128A      2.174517   129A      2.225161   130A      2.241246  
     131A      2.266890   132A      2.278509   133A      2.291082  
     134A      2.307095   135A      2.330031   136A      2.339422  
     137A      2.358018   138A      2.399438   139A      2.413072  
     140A      2.464735   141A      2.484222   142A      2.559787  
     143A      2.611109   144A      2.628289   145A      2.655421  
     146A      2.673213   147A      2.690190   148A      2.709082  
     149A      2.740288   150A      2.756322   151A      2.773847  
     152A      2.790186   153A      2.799716   154A      2.893248  
     155A      2.930351   156A      2.986483   157A      2.988390  
     158A      3.053293   159A      3.086527   160A      3.153693  
     161A      3.213635   162A      3.222424   163A      4.187762  
     164A      4.550920   165A      4.608607   166A      4.695192  
     167A      4.752841   168A      4.808334   169A      4.861988  
     170A      4.948780   171A      5.023219  

    Final Occupation by Irrep:
              A 
    DOCC [    37 ]

  Energy converged.

  @DF-RHF Final Energy:  -388.27752272282646

   => Energetics <=

    Nuclear Repulsion Energy =            458.5521890666414038
    One-Electron Energy =               -1435.1089929897409547
    Two-Electron Energy =                 588.2792812002750225
    DFT Exchange-Correlation Energy =       0.0000000000000000
    Empirical Dispersion Energy =           0.0000000000000000
    PCM Polarization Energy =               0.0000000000000000
    EFP Energy =                            0.0000000000000000
    Total Energy =                       -388.2775227228245285

    Alert: EFP and PCM quantities not currently incorporated into SCF psivars.

Properties will be evaluated at   0.000000,   0.000000,   0.000000 Bohr
  ==> Properties <==


Properties computed using the SCF density matrix

  Nuclear Dipole Moment: (a.u.)
     X:     1.7686      Y:    -6.3096      Z:     8.1520

  Electronic Dipole Moment: (a.u.)
     X:    -1.3424      Y:     6.1835      Z:    -7.5760

  Dipole Moment: (a.u.)
     X:     0.4262      Y:    -0.1261      Z:     0.5760     Total:     0.7275

  Dipole Moment: (Debye)
     X:     1.0832      Y:    -0.3205      Z:     1.4641     Total:     1.8492


  Saving occupied orbitals to File 180.

*** tstop() called on cx1-3-4-2.cx1.hpc.ic.ac.uk at Tue Jul  5 17:03:25 2016
Module time:
	user time   =      33.28 seconds =       0.55 minutes
	system time =       0.34 seconds =       0.01 minutes
	total time  =         34 seconds =       0.57 minutes
Total time:
	user time   =      33.28 seconds =       0.55 minutes
	system time =       0.34 seconds =       0.01 minutes
	total time  =         34 seconds =       0.57 minutes


Properties will be evaluated at   0.000000,   0.000000,   0.000000 Bohr

Properties computed using the  density matrix

  Nuclear Dipole Moment: (a.u.)
     X:     1.7686      Y:    -6.3096      Z:     8.1520

  Electronic Dipole Moment: (a.u.)
     X:    -1.3424      Y:     6.1835      Z:    -7.5760

  Dipole Moment: (a.u.)
     X:     0.4262      Y:    -0.1261      Z:     0.5760     Total:     0.7275

  Dipole Moment: (Debye)
     X:     1.0832      Y:    -0.3205      Z:     1.4641     Total:     1.8492

  Quadrupole Moment: (Debye Ang)
    XX:   -60.5147     YY:   -59.4238     ZZ:   -70.4395
    XY:     3.0928     XZ:    -4.1826     YZ:     5.6405

  Traceless Quadrupole Moment: (Debye Ang)
    XX:     2.9446     YY:     4.0356     ZZ:    -6.9802
    XY:     3.0928     XZ:    -4.1826     YZ:     5.6405

  Mulliken Charges: (a.u.)
   Center  Symbol    Alpha    Beta     Spin     Total
       1     H     0.28005  0.28005  0.00000  0.43989
       2     O     4.37133  4.37133  0.00000 -0.74267
       3     C     2.99607  2.99607  0.00000  0.00786
       4     C     3.16527  3.16527  0.00000 -0.33054
       5     H     0.41468  0.41468  0.00000  0.17063
       6     H     0.43235  0.43235  0.00000  0.13530
       7     C     3.16353  3.16353  0.00000 -0.32705
       8     H     0.41571  0.41571  0.00000  0.16858
       9     H     0.41987  0.41987  0.00000  0.16025
      10     C     3.15158  3.15158  0.00000 -0.30315
      11     H     0.42285  0.42285  0.00000  0.15431
      12     H     0.42511  0.42511  0.00000  0.14977
      13     C     3.15859  3.15859  0.00000 -0.31718
      14     H     0.42055  0.42055  0.00000  0.15889
      15     H     0.42065  0.42065  0.00000  0.15869
      16     C     3.15063  3.15063  0.00000 -0.30126
      17     H     0.42031  0.42031  0.00000  0.15937
      18     H     0.42345  0.42345  0.00000  0.15311
      19     C     3.15190  3.15190  0.00000 -0.30381
      20     H     0.42360  0.42360  0.00000  0.15281
      21     H     0.42366  0.42366  0.00000  0.15267
      22     C     3.23936  3.23936  0.00000 -0.47873
      23     H     0.42284  0.42284  0.00000  0.15433
      24     H     0.42334  0.42334  0.00000  0.15333
      25     H     0.42158  0.42158  0.00000  0.15684
      26     H     0.41918  0.41918  0.00000  0.16163
      27     H     0.42195  0.42195  0.00000  0.15611

   Total alpha = 37.00000, Total beta = 37.00000, Total charge = -0.00000


*** PSI4 exiting successfully. Buy a developer a beer!
