    -----------------------------------------------------------------------
          Psi4: An Open-Source Ab Initio Electronic Structure Package
                              Psi4 (no tag) Driver

                          Git: Rev {detached?}  

    J. M. Turney, A. C. Simmonett, R. M. Parrish, E. G. Hohenstein,
    F. A. Evangelista, J. T. Fermann, B. J. Mintz, L. A. Burns, J. J. Wilke,
    M. L. Abrams, N. J. Russ, M. L. Leininger, C. L. Janssen, E. T. Seidl,
    W. D. Allen, H. F. Schaefer, R. A. King, E. F. Valeev, C. D. Sherrill,
    and T. D. Crawford, WIREs Comput. Mol. Sci. 2, 556-565 (2012)
    (doi: 10.1002/wcms.93)

                         Additional Contributions by
    A. E. DePrince, M. Saitow, U. Bozkaya, A. Yu. Sokolov
    -----------------------------------------------------------------------


    Psi4 started on: Tue Jul  5 16:30:29 2016

    Process ID:  12587
    PSI4DATADIR: /export131/home/mjharvey/miniconda3/share
    Memory level set to 256.000 MB

  ==> Input File <==

--------------------------------------------------------------------------
set {
	reference rhf
	basis 6-31G*
}


set_num_threads( 1 )
memory 2 gb

molecule MOL {
0 1

H	 2.257630	 1.834031	 -1.153331
N	 1.449140	 1.245334	 -1.210713
C	 1.267428	 0.496480	 0.024474
H	 1.599519	 0.621359	 -1.980749
C	 -0.016086	 -0.325158	 -0.029487
H	 1.200461	 1.212940	 0.837637
H	 2.109120	 -0.161270	 0.255341
C	 -1.282277	 0.529072	 0.046735
H	 -0.012495	 -0.908639	 -0.945788
H	 -0.015903	 -1.041248	 0.791956
C	 -1.063093	 1.852848	 0.778363
H	 -2.066680	 -0.033359	 0.549098
H	 -1.647103	 0.729963	 -0.958502
H	 -0.731254	 1.685530	 1.798955
H	 -1.977602	 2.436418	 0.818847
H	 -0.308035	 2.455050	 0.280908

	symmetry c1
}
set optking {
	frozen_dihedral = ("
		6 3 5 9,
		1 2 3 6
	")
}

ee = energy('scf')
oeprop('DIPOLE', 'QUADRUPOLE', 'MULLIKEN_CHARGES')
f=open( 'psi4out.xyz', 'w' )
f.write( "16  " )
f.write( str(ee) + "\n" )
f.write( MOL.save_string_xyz() )
f.close()
--------------------------------------------------------------------------

  Memory set to   2.000 GiB by Python script.

*** tstart() called on cx1-3-16-4.cx1.hpc.ic.ac.uk
*** at Tue Jul  5 16:30:30 2016


         ---------------------------------------------------------
                                   SCF
            by Justin Turney, Rob Parrish, and Andy Simmonett
                              RHF Reference
                        1 Threads,   2000 MiB Core
         ---------------------------------------------------------

  ==> Geometry <==

    Molecular point group: c1
    Full point group: C1

    Geometry (in Angstrom), charge = 0, multiplicity = 1:

       Center              X                  Y                   Z               Mass       
    ------------   -----------------  -----------------  -----------------  -----------------
           H          2.153990449303     1.054472272596    -1.060074910319     1.007825032070
           N          1.345500449303     0.465775272596    -1.117456910319    14.003074004780
           C          1.163788449303    -0.283078727404     0.117730089681    12.000000000000
           H          1.495879449303    -0.158199727404    -1.887492910319     1.007825032070
           C         -0.119725550697    -1.104716727404     0.063769089681    12.000000000000
           H          1.096821449303     0.433381272596     0.930893089681     1.007825032070
           H          2.005480449303    -0.940828727404     0.348597089681     1.007825032070
           C         -1.385916550697    -0.250486727404     0.139991089681    12.000000000000
           H         -0.116134550697    -1.688197727404    -0.852531910319     1.007825032070
           H         -0.119542550697    -1.820806727404     0.885212089681     1.007825032070
           C         -1.166732550697     1.073289272596     0.871619089681    12.000000000000
           H         -2.170319550697    -0.812917727404     0.642354089681     1.007825032070
           H         -1.750742550697    -0.049595727404    -0.865245910319     1.007825032070
           H         -0.834893550697     0.905971272596     1.892211089681     1.007825032070
           H         -2.081241550697     1.656859272596     0.912103089681     1.007825032070
           H         -0.411674550697     1.675491272596     0.374164089681     1.007825032070

  Running in c1 symmetry.

  Rotational constants: A =      0.24624  B =      0.11450  C =      0.09642 [cm^-1]
  Rotational constants: A =   7382.19390  B =   3432.62110  C =   2890.47568 [MHz]
  Nuclear repulsion =  195.095343932615293

  Charge       = 0
  Multiplicity = 1
  Electrons    = 42
  Nalpha       = 21
  Nbeta        = 21

  ==> Algorithm <==

  SCF Algorithm Type is DF.
  DIIS enabled.
  MOM disabled.
  Fractional occupation disabled.
  Guess Type is CORE.
  Energy threshold   = 1.00e-06
  Density threshold  = 1.00e-06
  Integral threshold = 0.00e+00

  ==> Primary Basis <==

  Basis Set: 6-31G*
    Number of shells: 52
    Number of basis function: 97
    Number of Cartesian functions: 97
    Spherical Harmonics?: false
    Max angular momentum: 2

  ==> Pre-Iterations <==

   -------------------------------------------------------
    Irrep   Nso     Nmo     Nalpha   Nbeta   Ndocc  Nsocc
   -------------------------------------------------------
     A         97      97       0       0       0       0
   -------------------------------------------------------
    Total      97      97      21      21      21       0
   -------------------------------------------------------

 OEINTS: Overlap, kinetic, potential, dipole, and quadrupole integrals
         stored in file 35.

  ==> Integral Setup <==

  ==> DFJK: Density-Fitted J/K Matrices <==

    J tasked:                  Yes
    K tasked:                  Yes
    wK tasked:                  No
    OpenMP threads:              1
    Integrals threads:           1
    Memory (MB):              1430
    Algorithm:                Core
    Integral Cache:           NONE
    Schwarz Cutoff:          1E-12
    Fitting Condition:       1E-12

   => Auxiliary Basis Set <=

  Basis Set: 
    Number of shells: 219
    Number of basis function: 680
    Number of Cartesian functions: 680
    Spherical Harmonics?: false
    Max angular momentum: 3

  Minimum eigenvalue in the overlap matrix is 3.8866276689E-03.
  Using Symmetric Orthogonalization.
  SCF Guess: Core (One-Electron) Hamiltonian.

  ==> Iterations <==

                           Total Energy        Delta E     RMS |[F,P]|

   @DF-RHF iter   1:  -164.00874622089222   -1.64009e+02   7.71183e-02 
   @DF-RHF iter   2:  -121.97852237058876    4.20302e+01   6.70425e-02 DIIS
   @DF-RHF iter   3:  -170.53220829935620   -4.85537e+01   5.59262e-02 DIIS
   @DF-RHF iter   4:  -199.66170999255613   -2.91295e+01   4.31028e-02 DIIS
   @DF-RHF iter   5:  -209.04793730759238   -9.38623e+00   1.96528e-02 DIIS
   @DF-RHF iter   6:  -212.18785982230318   -3.13992e+00   4.43517e-03 DIIS
   @DF-RHF iter   7:  -212.30101307836705   -1.13153e-01   8.56209e-04 DIIS
   @DF-RHF iter   8:  -212.30659839252914   -5.58531e-03   2.65191e-04 DIIS
   @DF-RHF iter   9:  -212.30710364100540   -5.05248e-04   1.03327e-04 DIIS
   @DF-RHF iter  10:  -212.30717784238502   -7.42014e-05   2.20197e-05 DIIS
   @DF-RHF iter  11:  -212.30718280402104   -4.96164e-06   7.94044e-06 DIIS
   @DF-RHF iter  12:  -212.30718325997574   -4.55955e-07   3.22126e-06 DIIS
   @DF-RHF iter  13:  -212.30718332741034   -6.74346e-08   1.19368e-06 DIIS
   @DF-RHF iter  14:  -212.30718333742138   -1.00110e-08   2.91307e-07 DIIS

  ==> Post-Iterations <==

    Orbital Energies (a.u.)
    -----------------------

    Doubly Occupied:                                                      

       1A    -15.534518     2A    -11.237841     3A    -11.209519  
       4A    -11.206156     5A    -11.196593     6A     -1.179399  
       7A     -1.053266     8A     -0.949140     9A     -0.863597  
      10A     -0.763757    11A     -0.665603    12A     -0.641985  
      13A     -0.610045    14A     -0.579289    15A     -0.535588  
      16A     -0.523370    17A     -0.509332    18A     -0.466381  
      19A     -0.453904    20A     -0.452416    21A     -0.381119  

    Virtual:                                                              

      22A      0.222507    23A      0.265417    24A      0.272239  
      25A      0.286290    26A      0.305381    27A      0.325052  
      28A      0.326104    29A      0.347668    30A      0.355080  
      31A      0.375811    32A      0.387402    33A      0.393213  
      34A      0.438345    35A      0.448926    36A      0.493828  
      37A      0.720261    38A      0.743178    39A      0.761834  
      40A      0.790561    41A      0.804824    42A      0.827932  
      43A      0.874119    44A      0.932116    45A      0.956724  
      46A      0.998661    47A      1.008919    48A      1.054792  
      49A      1.082752    50A      1.111315    51A      1.152613  
      52A      1.165486    53A      1.168766    54A      1.175264  
      55A      1.204302    56A      1.214739    57A      1.231876  
      58A      1.249374    59A      1.259095    60A      1.270037  
      61A      1.292971    62A      1.321974    63A      1.362589  
      64A      1.550764    65A      1.642606    66A      1.690730  
      67A      1.750332    68A      1.807523    69A      1.897028  
      70A      1.977569    71A      2.027265    72A      2.083384  
      73A      2.166002    74A      2.253438    75A      2.306366  
      76A      2.316514    77A      2.344911    78A      2.375148  
      79A      2.437918    80A      2.485696    81A      2.553028  
      82A      2.587500    83A      2.681543    84A      2.698000  
      85A      2.730005    86A      2.776026    87A      2.835050  
      88A      2.866275    89A      2.917769    90A      3.026366  
      91A      3.059587    92A      3.135407    93A      4.230037  
      94A      4.590857    95A      4.758825    96A      4.820682  
      97A      4.995498  

    Final Occupation by Irrep:
              A 
    DOCC [    21 ]

  Energy converged.

  @DF-RHF Final Energy:  -212.30718333742138

   => Energetics <=

    Nuclear Repulsion Energy =            195.0953439326152932
    One-Electron Energy =                -672.7793850353036760
    Two-Electron Energy =                 265.3768577652667773
    DFT Exchange-Correlation Energy =       0.0000000000000000
    Empirical Dispersion Energy =           0.0000000000000000
    PCM Polarization Energy =               0.0000000000000000
    EFP Energy =                            0.0000000000000000
    Total Energy =                       -212.3071833374216340

    Alert: EFP and PCM quantities not currently incorporated into SCF psivars.

Properties will be evaluated at   0.000000,   0.000000,   0.000000 Bohr
  ==> Properties <==


Properties computed using the SCF density matrix

  Nuclear Dipole Moment: (a.u.)
     X:    -0.6905      Y:     0.2383      Z:     1.2409

  Electronic Dipole Moment: (a.u.)
     X:     1.1955      Y:    -0.5200      Z:    -1.2341

  Dipole Moment: (a.u.)
     X:     0.5051      Y:    -0.2817      Z:     0.0068     Total:     0.5783

  Dipole Moment: (Debye)
     X:     1.2837      Y:    -0.7159      Z:     0.0173     Total:     1.4700


  Saving occupied orbitals to File 180.

*** tstop() called on cx1-3-16-4.cx1.hpc.ic.ac.uk at Tue Jul  5 16:30:36 2016
Module time:
	user time   =       6.00 seconds =       0.10 minutes
	system time =       0.05 seconds =       0.00 minutes
	total time  =          6 seconds =       0.10 minutes
Total time:
	user time   =       6.00 seconds =       0.10 minutes
	system time =       0.05 seconds =       0.00 minutes
	total time  =          6 seconds =       0.10 minutes


Properties will be evaluated at   0.000000,   0.000000,   0.000000 Bohr

Properties computed using the  density matrix

  Nuclear Dipole Moment: (a.u.)
     X:    -0.6905      Y:     0.2383      Z:     1.2409

  Electronic Dipole Moment: (a.u.)
     X:     1.1955      Y:    -0.5200      Z:    -1.2341

  Dipole Moment: (a.u.)
     X:     0.5051      Y:    -0.2817      Z:     0.0068     Total:     0.5783

  Dipole Moment: (Debye)
     X:     1.2837      Y:    -0.7159      Z:     0.0173     Total:     1.4700

  Quadrupole Moment: (Debye Ang)
    XX:   -31.1669     YY:   -34.8298     ZZ:   -33.4951
    XY:     0.7876     XZ:    -1.5847     YZ:     1.2763

  Traceless Quadrupole Moment: (Debye Ang)
    XX:     1.9970     YY:    -1.6658     ZZ:    -0.3312
    XY:     0.7876     XZ:    -1.5847     YZ:     1.2763

  Mulliken Charges: (a.u.)
   Center  Symbol    Alpha    Beta     Spin     Total
       1     H     0.33232  0.33232  0.00000  0.33536
       2     N     3.92120  3.92120  0.00000 -0.84239
       3     C     3.07371  3.07371  0.00000 -0.14741
       4     H     0.33406  0.33406  0.00000  0.33188
       5     C     3.15528  3.15528  0.00000 -0.31056
       6     H     0.41540  0.41540  0.00000  0.16920
       7     H     0.43068  0.43068  0.00000  0.13864
       8     C     3.14417  3.14417  0.00000 -0.28833
       9     H     0.42376  0.42376  0.00000  0.15248
      10     H     0.42260  0.42260  0.00000  0.15479
      11     C     3.25344  3.25344  0.00000 -0.50687
      12     H     0.42386  0.42386  0.00000  0.15228
      13     H     0.41786  0.41786  0.00000  0.16429
      14     H     0.42650  0.42650  0.00000  0.14699
      15     H     0.42068  0.42068  0.00000  0.15863
      16     H     0.40450  0.40450  0.00000  0.19101

   Total alpha = 21.00000, Total beta = 21.00000, Total charge =  0.00000


*** PSI4 exiting successfully. Buy a developer a beer!
