
    -----------------------------------------------------------------------
          Psi4: An Open-Source Ab Initio Electronic Structure Package
                               Psi4 1.1 release

                         Git: Rev {HEAD} add49b9 


    R. M. Parrish, L. A. Burns, D. G. A. Smith, A. C. Simmonett,
    A. E. DePrince III, E. G. Hohenstein, U. Bozkaya, A. Yu. Sokolov,
    R. Di Remigio, R. M. Richard, J. F. Gonthier, A. M. James,
    H. R. McAlexander, A. Kumar, M. Saitow, X. Wang, B. P. Pritchard,
    P. Verma, H. F. Schaefer III, K. Patkowski, R. A. King, E. F. Valeev,
    F. A. Evangelista, J. M. Turney, T. D. Crawford, and C. D. Sherrill,
    J. Chem. Theory Comput. in press (2017).
    (doi: 10.1021/acs.jctc.7b00174)

    -----------------------------------------------------------------------


    Psi4 started on: Friday, 09 March 2018 11:15AM

    Process ID:  19628
    PSIDATADIR: /home/sdoerr/miniconda3/share/psi4
    Memory:     500.0 MiB
    Threads:    1
    
  ==> Input File <==

--------------------------------------------------------------------------
set_num_threads(1)
set_memory('2004 MB')

set { scf_mem_safety_factor 0.7 }

set { reference rks }
set { basis cc-pVDZ }

molecule MOL {
    0 1
    noreorient
    nocom
    symmetry c1
    O    1.141000   0.017000   0.083000
    C    2.558000   0.086000  -0.005000
    C    3.192000  -0.789000   1.067000
    O    4.610000  -0.719000   0.979000
    H    0.789000   0.590000  -0.620000
    H    2.874000   1.128000   0.115000
    H    2.871000  -0.243000  -1.001000
    H    2.876000  -1.830000   0.947000
    H    2.879000  -0.459000   2.064000
    H    4.875379   0.108379   1.417068
}

set optking { frozen_dihedral = (" 2 3 4 10 ") }

energy, wfn = energy('B3LYP-D3', return_wfn=True)

import os
os.chdir(os.environ['HTMD_PSI4_WORKDIR'])

oeprop(wfn, 'DIPOLE', 'QUADRUPOLE', 'MULLIKEN_CHARGES')

with open('psi4out.xyz', 'w') as f:
    f.write('10 ' )
    f.write('%.12f\n' % energy)
    f.write(MOL.save_string_xyz())
--------------------------------------------------------------------------
  Threads set to 1 by Python driver.

  Memory set to   1.866 GiB by Python driver.

*** tstart() called on computer03
*** at Fri Mar  9 11:15:16 2018

   => Loading Basis Set <=

    Name: CC-PVDZ
    Role: ORBITAL
    Keyword: BASIS
    atoms 1, 4 entry O          line   190 file /home/sdoerr/miniconda3/share/psi4/basis/cc-pvdz.gbs 
    atoms 2-3  entry C          line   130 file /home/sdoerr/miniconda3/share/psi4/basis/cc-pvdz.gbs 
    atoms 5-10 entry H          line    20 file /home/sdoerr/miniconda3/share/psi4/basis/cc-pvdz.gbs 


         ---------------------------------------------------------
                                   SCF
            by Justin Turney, Rob Parrish, and Andy Simmonett
                              RKS Reference
                        1 Threads,   1911 MiB Core
         ---------------------------------------------------------

  ==> Geometry <==

    Molecular point group: c1
    Full point group: C1

    Geometry (in Angstrom), charge = 0, multiplicity = 1:

       Center              X                  Y                   Z               Mass       
    ------------   -----------------  -----------------  -----------------  -----------------
           O          1.141000000000     0.017000000000     0.083000000000    15.994914619560
           C          2.558000000000     0.086000000000    -0.005000000000    12.000000000000
           C          3.192000000000    -0.789000000000     1.067000000000    12.000000000000
           O          4.610000000000    -0.719000000000     0.979000000000    15.994914619560
           H          0.789000000000     0.590000000000    -0.620000000000     1.007825032070
           H          2.874000000000     1.128000000000     0.115000000000     1.007825032070
           H          2.871000000000    -0.243000000000    -1.001000000000     1.007825032070
           H          2.876000000000    -1.830000000000     0.947000000000     1.007825032070
           H          2.879000000000    -0.459000000000     2.064000000000     1.007825032070
           H          4.875379000000     0.108379000000     1.417068000000     1.007825032070

  Running in c1 symmetry.

  Rotational constants: A =      0.81964  B =      0.02548  C =      0.02500 [cm^-1]
  Rotational constants: A =  24572.30261  B =    763.78872  C =    749.42517 [MHz]
  Nuclear repulsion =  129.774089412096885

  Charge       = 0
  Multiplicity = 1
  Electrons    = 34
  Nalpha       = 17
  Nbeta        = 17

  ==> Algorithm <==

  SCF Algorithm Type is DF.
  DIIS enabled.
  MOM disabled.
  Fractional occupation disabled.
  Guess Type is SAD.
  Energy threshold   = 1.00e-06
  Density threshold  = 1.00e-06
  Integral threshold = 0.00e+00

  ==> Primary Basis <==

  Basis Set: CC-PVDZ
    Blend: CC-PVDZ
    Number of shells: 42
    Number of basis function: 86
    Number of Cartesian functions: 90
    Spherical Harmonics?: true
    Max angular momentum: 2

  ==> DFT Potential <==

   => B3LYP Composite Functional <= 

    B3LYP Hybrid-GGA Exchange-Correlation Functional (VWN1-RPA)

    P.J. Stephens et. al., J. Phys. Chem., 98, 11623-11627, 1994

    Points   =           5000
    Deriv    =              1
    GGA      =           TRUE
    Meta     =          FALSE

    X_LRC        =          FALSE
    X_Hybrid     =           TRUE
    X_Alpha      =   2.000000E-01
    X_Omega      =   0.000000E+00
    C_LRC        =          FALSE
    C_Hybrid     =          FALSE
    C_Alpha      =   0.000000E+00
    C_Omega      =   0.000000E+00

   => Exchange Functionals <=

    0.8000    B3_X
    0.2000      HF 

   => Correlation Functionals <=

    0.1900 VWN3RPA_C
    0.8100   LYP_C

   => Molecular Quadrature <=

    Radial Scheme    =       TREUTLER
    Pruning Scheme   =           FLAT
    Nuclear Scheme   =       TREUTLER

    BS radius alpha  =              1
    Pruning alpha    =              1
    Radial Points    =             75
    Spherical Points =            302
    Total Points     =         222542
    Total Blocks     =            210
    Max Points       =           4981
    Max Functions    =             86

   => -D3ZERO: Empirical Dispersion <=

    Grimme's -D3 (zero-damping) Dispersion Correction
    Grimme S.; Antony J.; Ehrlich S.; Krieg H. (2010), J. Chem. Phys., 132: 154104

        S6 =   1.000000E+00
        S8 =   1.703000E+00
       SR6 =   1.261000E+00
    ALPHA6 =   1.400000E+01

   => Loading Basis Set <=

    Name: (CC-PVDZ AUX)
    Role: JKFIT
    Keyword: DF_BASIS_SCF
    atoms 1, 4 entry O          line   220 file /home/sdoerr/miniconda3/share/psi4/basis/cc-pvdz-jkfit.gbs 
    atoms 2-3  entry C          line   120 file /home/sdoerr/miniconda3/share/psi4/basis/cc-pvdz-jkfit.gbs 
    atoms 5-10 entry H          line    50 file /home/sdoerr/miniconda3/share/psi4/basis/cc-pvdz-jkfit.gbs 

  ==> Pre-Iterations <==

   -------------------------------------------------------
    Irrep   Nso     Nmo     Nalpha   Nbeta   Ndocc  Nsocc
   -------------------------------------------------------
     A         86      86       0       0       0       0
   -------------------------------------------------------
    Total      86      86      17      17      17       0
   -------------------------------------------------------

  ==> Integral Setup <==

  ==> DFJK: Density-Fitted J/K Matrices <==

    J tasked:                  Yes
    K tasked:                  Yes
    wK tasked:                  No
    OpenMP threads:              1
    Integrals threads:           1
    Memory (MB):              1337
    Algorithm:                Core
    Integral Cache:           NONE
    Schwarz Cutoff:          1E-12
    Fitting Condition:       1E-12

   => Auxiliary Basis Set <=

  Basis Set: (CC-PVDZ AUX)
    Blend: CC-PVDZ-JKFIT
    Number of shells: 150
    Number of basis function: 418
    Number of Cartesian functions: 474
    Spherical Harmonics?: true
    Max angular momentum: 3

  Minimum eigenvalue in the overlap matrix is 5.0567394753E-03.
  Using Symmetric Orthogonalization.

  SCF Guess: Superposition of Atomic Densities via on-the-fly atomic UHF.

  ==> Iterations <==

                           Total Energy        Delta E     RMS |[F,P]|

   @DF-RKS iter   0:  -230.98145999668895   -2.30981e+02   4.09678e-02 
   @DF-RKS iter   1:  -230.17708653326216    8.04373e-01   5.28749e-03 
   @DF-RKS iter   2:  -230.12069229854322    5.63942e-02   7.17012e-03 DIIS
   @DF-RKS iter   3:  -230.25728761640272   -1.36595e-01   6.32103e-04 DIIS
   @DF-RKS iter   4:  -230.25840240879063   -1.11479e-03   2.19597e-04 DIIS
   @DF-RKS iter   5:  -230.25857327351488   -1.70865e-04   4.64416e-05 DIIS
   @DF-RKS iter   6:  -230.25858054736813   -7.27385e-06   9.13358e-06 DIIS
   @DF-RKS iter   7:  -230.25858072242576   -1.75058e-07   4.61662e-06 DIIS
   @DF-RKS iter   8:  -230.25858077984370   -5.74179e-08   3.60234e-07 DIIS

  ==> Post-Iterations <==

    Orbital Energies (a.u.)
    -----------------------

    Doubly Occupied:                                                      

       1A    -19.135202     2A    -19.132206     3A    -10.227312  
       4A    -10.225850     5A     -1.021285     6A     -1.010098  
       7A     -0.731068     8A     -0.613482     9A     -0.521454  
      10A     -0.495183    11A     -0.451880    12A     -0.429548  
      13A     -0.397595    14A     -0.340096    15A     -0.325734  
      16A     -0.270057    17A     -0.265577  

    Virtual:                                                              

      18A      0.044462    19A      0.050219    20A      0.104956  
      21A      0.117465    22A      0.127294    23A      0.163829  
      24A      0.186635    25A      0.242127    26A      0.251458  
      27A      0.436254    28A      0.441431    29A      0.502151  
      30A      0.514841    31A      0.551806    32A      0.582180  
      33A      0.603454    34A      0.623650    35A      0.638226  
      36A      0.648908    37A      0.667189    38A      0.683324  
      39A      0.881166    40A      0.902643    41A      0.908743  
      42A      0.972122    43A      1.014825    44A      1.057401  
      45A      1.064226    46A      1.085113    47A      1.201317  
      48A      1.216851    49A      1.310739    50A      1.330515  
      51A      1.344092    52A      1.385761    53A      1.442771  
      54A      1.513009    55A      1.599016    56A      1.604515  
      57A      1.646785    58A      1.651740    59A      1.663250  
      60A      1.705962    61A      1.721171    62A      1.771323  
      63A      1.836129    64A      1.862276    65A      1.917633  
      66A      1.975052    67A      2.032304    68A      2.065309  
      69A      2.099939    70A      2.162294    71A      2.242548  
      72A      2.290333    73A      2.405125    74A      2.426672  
      75A      2.471556    76A      2.517770    77A      2.910995  
      78A      2.950018    79A      2.968114    80A      3.022850  
      81A      3.068379    82A      3.134769    83A      3.190270  
      84A      3.238423    85A      3.669809    86A      3.687220  

    Final Occupation by Irrep:
              A 
    DOCC [    17 ]

  Energy converged.

  @DF-RKS Final Energy:  -230.25858077984370

   => Energetics <=

    Nuclear Repulsion Energy =            129.7740894120968846
    One-Electron Energy =                -571.2453355094480685
    Two-Electron Energy =                 235.7556033552719725
    DFT Exchange-Correlation Energy =     -24.5383239877645138
    Empirical Dispersion Energy =          -0.0046140500000000
    PCM Polarization Energy =               0.0000000000000000
    EFP Energy =                            0.0000000000000000
    Total Energy =                       -230.2585807798437258



Properties will be evaluated at   0.000000,   0.000000,   0.000000 Bohr

Properties computed using the SCF density matrix

  Nuclear Dipole Moment: (a.u.)
     X:   184.5740      Y:   -19.9170      Z:    33.6184

  Electronic Dipole Moment: (a.u.)
     X:  -184.6313      Y:    20.6844      Z:   -33.7542

  Dipole Moment: (a.u.)
     X:    -0.0573      Y:     0.7674      Z:    -0.1359     Total:     0.7815

  Dipole Moment: (Debye)
     X:    -0.1456      Y:     1.9506      Z:    -0.3453     Total:     1.9863


*** tstop() called on computer03 at Fri Mar  9 11:15:54 2018
Module time:
	user time   =      35.37 seconds =       0.59 minutes
	system time =       0.75 seconds =       0.01 minutes
	total time  =         38 seconds =       0.63 minutes
Total time:
	user time   =      35.37 seconds =       0.59 minutes
	system time =       0.75 seconds =       0.01 minutes
	total time  =         38 seconds =       0.63 minutes


Properties will be evaluated at   0.000000,   0.000000,   0.000000 Bohr

Properties computed using the  density matrix

  Nuclear Dipole Moment: (a.u.)
     X:   184.5740      Y:   -19.9170      Z:    33.6184

  Electronic Dipole Moment: (a.u.)
     X:  -184.6313      Y:    20.6844      Z:   -33.7542

  Dipole Moment: (a.u.)
     X:    -0.0573      Y:     0.7674      Z:    -0.1359     Total:     0.7815

  Dipole Moment: (Debye)
     X:    -0.1456      Y:     1.9506      Z:    -0.3453     Total:     1.9863

  Quadrupole Moment: (Debye Ang)
    XX:   -28.0031     YY:   -24.4520     ZZ:   -22.3269
    XY:     6.9236     XZ:     2.4699     YZ:     0.6142

  Traceless Quadrupole Moment: (Debye Ang)
    XX:    -3.0757     YY:     0.4753     ZZ:     2.6004
    XY:     6.9236     XZ:     2.4699     YZ:     0.6142

  Mulliken Charges: (a.u.)
   Center  Symbol    Alpha    Beta     Spin     Total
       1     O     4.14039  4.14039  0.00000 -0.28079
       2     C     2.94071  2.94071  0.00000  0.11859
       3     C     2.93179  2.93179  0.00000  0.13641
       4     O     4.13946  4.13946  0.00000 -0.27892
       5     H     0.42820  0.42820  0.00000  0.14360
       6     H     0.50803  0.50803  0.00000 -0.01606
       7     H     0.49809  0.49809  0.00000  0.00383
       8     H     0.48638  0.48638  0.00000  0.02725
       9     H     0.49701  0.49701  0.00000  0.00598
      10     H     0.42994  0.42994  0.00000  0.14011

   Total alpha = 17.00000, Total beta = 17.00000, Total charge =  0.00000


*** Psi4 exiting successfully. Buy a developer a beer!
