    -----------------------------------------------------------------------
          Psi4: An Open-Source Ab Initio Electronic Structure Package
                              Psi4 (no tag) Driver

                          Git: Rev {detached?}  

    J. M. Turney, A. C. Simmonett, R. M. Parrish, E. G. Hohenstein,
    F. A. Evangelista, J. T. Fermann, B. J. Mintz, L. A. Burns, J. J. Wilke,
    M. L. Abrams, N. J. Russ, M. L. Leininger, C. L. Janssen, E. T. Seidl,
    W. D. Allen, H. F. Schaefer, R. A. King, E. F. Valeev, C. D. Sherrill,
    and T. D. Crawford, WIREs Comput. Mol. Sci. 2, 556-565 (2012)
    (doi: 10.1002/wcms.93)

                         Additional Contributions by
    A. E. DePrince, M. Saitow, U. Bozkaya, A. Yu. Sokolov
    -----------------------------------------------------------------------


    Psi4 started on: Tue Jul  5 16:30:51 2016

    Process ID:  16560
    PSI4DATADIR: /export131/home/mjharvey/miniconda3/share
    Memory level set to 256.000 MB

  ==> Input File <==

--------------------------------------------------------------------------
set {
	reference rhf
	basis 6-31G*
}


set_num_threads( 1 )
memory 2 gb

molecule MOL {
0 1

O	 -0.682937	 1.318834	 -0.186099
C	 -0.860635	 0.152188	 -0.042321
C	 -2.173363	 -0.477127	 0.338347
O	 0.083258	 -0.765189	 -0.202595
H	 -2.477673	 -1.180929	 -0.427595
H	 -2.923125	 0.290956	 0.455536
H	 -2.058825	 -1.029004	 1.264191
C	 1.391937	 -0.334737	 -0.569838
C	 1.553020	 1.164426	 -0.398929
H	 1.592951	 -0.637607	 -1.586206
H	 2.051076	 -0.873426	 0.095631
H	 2.578360	 1.450278	 -0.612693
H	 0.901859	 1.702205	 -1.076537
H	 1.322287	 1.459262	 0.619034

	symmetry c1
}
set optking {
	frozen_dihedral = ("
		8 4 2 1
	")
}

ee = energy('scf')
oeprop('DIPOLE', 'QUADRUPOLE', 'MULLIKEN_CHARGES')
f=open( 'psi4out.xyz', 'w' )
f.write( "14  " )
f.write( str(ee) + "\n" )
f.write( MOL.save_string_xyz() )
f.close()
--------------------------------------------------------------------------

  Memory set to   2.000 GiB by Python script.

*** tstart() called on cx1-1-2-4.cx1.hpc.ic.ac.uk
*** at Tue Jul  5 16:30:51 2016


         ---------------------------------------------------------
                                   SCF
            by Justin Turney, Rob Parrish, and Andy Simmonett
                              RHF Reference
                        1 Threads,   2000 MiB Core
         ---------------------------------------------------------

  ==> Geometry <==

    Molecular point group: c1
    Full point group: C1

    Geometry (in Angstrom), charge = 0, multiplicity = 1:

       Center              X                  Y                   Z               Mass       
    ------------   -----------------  -----------------  -----------------  -----------------
           O         -0.573165198619     1.135948795003    -0.009288597684    15.994914619560
           C         -0.750863198619    -0.030697204997     0.134489402316    12.000000000000
           C         -2.063591198619    -0.660012204997     0.515157402316    12.000000000000
           O          0.193029801381    -0.948074204997    -0.025784597684    15.994914619560
           H         -2.367901198619    -1.363814204997    -0.250784597684     1.007825032070
           H         -2.813353198619     0.108070795003     0.632346402316     1.007825032070
           H         -1.949053198619    -1.211889204997     1.441001402316     1.007825032070
           C          1.501708801381    -0.517622204997    -0.393027597684    12.000000000000
           C          1.662791801381     0.981540795003    -0.222118597684    12.000000000000
           H          1.702722801381    -0.820492204997    -1.409395597684     1.007825032070
           H          2.160847801381    -1.056311204997     0.272441402316     1.007825032070
           H          2.688131801381     1.267392795003    -0.435882597684     1.007825032070
           H          1.011630801381     1.519319795003    -0.899726597684     1.007825032070
           H          1.432058801381     1.276376795003     0.795844402316     1.007825032070

  Running in c1 symmetry.

  Rotational constants: A =      0.25427  B =      0.09556  C =      0.07267 [cm^-1]
  Rotational constants: A =   7622.81389  B =   2864.66834  C =   2178.49291 [MHz]
  Nuclear repulsion =  255.784835420840523

  Charge       = 0
  Multiplicity = 1
  Electrons    = 48
  Nalpha       = 24
  Nbeta        = 24

  ==> Algorithm <==

  SCF Algorithm Type is DF.
  DIIS enabled.
  MOM disabled.
  Fractional occupation disabled.
  Guess Type is CORE.
  Energy threshold   = 1.00e-06
  Density threshold  = 1.00e-06
  Integral threshold = 0.00e+00

  ==> Primary Basis <==

  Basis Set: 6-31G*
    Number of shells: 52
    Number of basis function: 106
    Number of Cartesian functions: 106
    Spherical Harmonics?: false
    Max angular momentum: 2

  ==> Pre-Iterations <==

   -------------------------------------------------------
    Irrep   Nso     Nmo     Nalpha   Nbeta   Ndocc  Nsocc
   -------------------------------------------------------
     A        106     106       0       0       0       0
   -------------------------------------------------------
    Total     106     106      24      24      24       0
   -------------------------------------------------------

 OEINTS: Overlap, kinetic, potential, dipole, and quadrupole integrals
         stored in file 35.

  ==> Integral Setup <==

  ==> DFJK: Density-Fitted J/K Matrices <==

    J tasked:                  Yes
    K tasked:                  Yes
    wK tasked:                  No
    OpenMP threads:              1
    Integrals threads:           1
    Memory (MB):              1430
    Algorithm:                Core
    Integral Cache:           NONE
    Schwarz Cutoff:          1E-12
    Fitting Condition:       1E-12

   => Auxiliary Basis Set <=

  Basis Set: 
    Number of shells: 216
    Number of basis function: 686
    Number of Cartesian functions: 686
    Spherical Harmonics?: false
    Max angular momentum: 3

  Minimum eigenvalue in the overlap matrix is 3.7390435922E-03.
  Using Symmetric Orthogonalization.
  SCF Guess: Core (One-Electron) Hamiltonian.

  ==> Iterations <==

                           Total Energy        Delta E     RMS |[F,P]|

   @DF-RHF iter   1:  -238.71582476641481   -2.38716e+02   8.40353e-02 
   @DF-RHF iter   2:  -232.27324336240088    6.44258e+00   6.22071e-02 DIIS
   @DF-RHF iter   3:  -276.25554291438959   -4.39823e+01   5.70567e-02 DIIS
   @DF-RHF iter   4:  -301.85764964857447   -2.56021e+01   2.03802e-02 DIIS
   @DF-RHF iter   5:  -304.12969710322591   -2.27205e+00   1.63362e-02 DIIS
   @DF-RHF iter   6:  -305.79848928452441   -1.66879e+00   2.05384e-03 DIIS
   @DF-RHF iter   7:  -305.83281982254960   -3.43305e-02   5.64289e-04 DIIS
   @DF-RHF iter   8:  -305.83463614500749   -1.81632e-03   2.89990e-04 DIIS
   @DF-RHF iter   9:  -305.83504771549144   -4.11570e-04   6.06899e-05 DIIS
   @DF-RHF iter  10:  -305.83507993454634   -3.22191e-05   1.68445e-05 DIIS
   @DF-RHF iter  11:  -305.83508273639632   -2.80185e-06   4.12700e-06 DIIS
   @DF-RHF iter  12:  -305.83508294687033   -2.10474e-07   1.55966e-06 DIIS
   @DF-RHF iter  13:  -305.83508297151354   -2.46432e-08   5.56046e-07 DIIS

  ==> Post-Iterations <==

    Orbital Energies (a.u.)
    -----------------------

    Doubly Occupied:                                                      

       1A    -20.603128     2A    -20.536769     3A    -11.378904  
       4A    -11.284978     5A    -11.233660     6A    -11.197154  
       7A     -1.472215     8A     -1.366258     9A     -1.055800  
      10A     -0.990312    11A     -0.885753    12A     -0.760388  
      13A     -0.695920    14A     -0.690443    15A     -0.666312  
      16A     -0.605770    17A     -0.586311    18A     -0.565880  
      19A     -0.539468    20A     -0.538224    21A     -0.526297  
      22A     -0.494810    23A     -0.438860    24A     -0.406785  

    Virtual:                                                              

      25A      0.194342    26A      0.245660    27A      0.261972  
      28A      0.295145    29A      0.306627    30A      0.314590  
      31A      0.332784    32A      0.335939    33A      0.350126  
      34A      0.366089    35A      0.408091    36A      0.423125  
      37A      0.516448    38A      0.563684    39A      0.714559  
      40A      0.719512    41A      0.747936    42A      0.754742  
      43A      0.799371    44A      0.822229    45A      0.828871  
      46A      0.870288    47A      0.924005    48A      0.973576  
      49A      0.979602    50A      1.002222    51A      1.072813  
      52A      1.118953    53A      1.135635    54A      1.151308  
      55A      1.166991    56A      1.187554    57A      1.194530  
      58A      1.200576    59A      1.222332    60A      1.236305  
      61A      1.295980    62A      1.302193    63A      1.365150  
      64A      1.404495    65A      1.444411    66A      1.557863  
      67A      1.621738    68A      1.644189    69A      1.715643  
      70A      1.784305    71A      1.819210    72A      1.858896  
      73A      1.869667    74A      1.991054    75A      2.075290  
      76A      2.084845    77A      2.177223    78A      2.214567  
      79A      2.225389    80A      2.265180    81A      2.289209  
      82A      2.296845    83A      2.380261    84A      2.469909  
      85A      2.495732    86A      2.545029    87A      2.586708  
      88A      2.657848    89A      2.664848    90A      2.706550  
      91A      2.729935    92A      2.782468    93A      2.823804  
      94A      2.899680    95A      2.984730    96A      3.058312  
      97A      3.189691    98A      3.364767    99A      3.417546  
     100A      3.565875   101A      4.424774   102A      4.537549  
     103A      4.613198   104A      4.715226   105A      4.836289  
     106A      4.952613  

    Final Occupation by Irrep:
              A 
    DOCC [    24 ]

  Energy converged.

  @DF-RHF Final Energy:  -305.83508297151354

   => Energetics <=

    Nuclear Repulsion Energy =            255.7848354208405226
    One-Electron Energy =                -924.1992674998991788
    Two-Electron Energy =                 362.5793491075449992
    DFT Exchange-Correlation Energy =       0.0000000000000000
    Empirical Dispersion Energy =           0.0000000000000000
    PCM Polarization Energy =               0.0000000000000000
    EFP Energy =                            0.0000000000000000
    Total Energy =                       -305.8350829715136570

    Alert: EFP and PCM quantities not currently incorporated into SCF psivars.

Properties will be evaluated at   0.000000,   0.000000,   0.000000 Bohr
  ==> Properties <==


Properties computed using the SCF density matrix

  Nuclear Dipole Moment: (a.u.)
     X:     1.7466      Y:    -0.2629      Z:     0.1366

  Electronic Dipole Moment: (a.u.)
     X:    -1.7329      Y:    -0.4206      Z:    -0.1063

  Dipole Moment: (a.u.)
     X:     0.0138      Y:    -0.6835      Z:     0.0303     Total:     0.6843

  Dipole Moment: (Debye)
     X:     0.0350      Y:    -1.7372      Z:     0.0769     Total:     1.7392


  Saving occupied orbitals to File 180.

*** tstop() called on cx1-1-2-4.cx1.hpc.ic.ac.uk at Tue Jul  5 16:30:57 2016
Module time:
	user time   =       5.43 seconds =       0.09 minutes
	system time =       0.02 seconds =       0.00 minutes
	total time  =          6 seconds =       0.10 minutes
Total time:
	user time   =       5.43 seconds =       0.09 minutes
	system time =       0.02 seconds =       0.00 minutes
	total time  =          6 seconds =       0.10 minutes


Properties will be evaluated at   0.000000,   0.000000,   0.000000 Bohr

Properties computed using the  density matrix

  Nuclear Dipole Moment: (a.u.)
     X:     1.7466      Y:    -0.2629      Z:     0.1366

  Electronic Dipole Moment: (a.u.)
     X:    -1.7329      Y:    -0.4206      Z:    -0.1063

  Dipole Moment: (a.u.)
     X:     0.0138      Y:    -0.6835      Z:     0.0303     Total:     0.6843

  Dipole Moment: (Debye)
     X:     0.0350      Y:    -1.7372      Z:     0.0769     Total:     1.7392

  Quadrupole Moment: (Debye Ang)
    XX:   -32.4430     YY:   -41.1664     ZZ:   -35.0613
    XY:     1.3680     XZ:    -1.1127     YZ:     0.0275

  Traceless Quadrupole Moment: (Debye Ang)
    XX:     3.7806     YY:    -4.9428     ZZ:     1.1622
    XY:     1.3680     XZ:    -1.1127     YZ:     0.0275

  Mulliken Charges: (a.u.)
   Center  Symbol    Alpha    Beta     Spin     Total
       1     O     4.28467  4.28467  0.00000 -0.56934
       2     C     2.61776  2.61776  0.00000  0.76448
       3     C     3.28068  3.28068  0.00000 -0.56137
       4     O     4.31107  4.31107  0.00000 -0.62214
       5     H     0.40016  0.40016  0.00000  0.19969
       6     H     0.39726  0.39726  0.00000  0.20549
       7     H     0.40052  0.40052  0.00000  0.19896
       8     C     2.99724  2.99724  0.00000  0.00551
       9     C     3.25603  3.25603  0.00000 -0.51206
      10     H     0.41398  0.41398  0.00000  0.17204
      11     H     0.41245  0.41245  0.00000  0.17510
      12     H     0.42780  0.42780  0.00000  0.14440
      13     H     0.38835  0.38835  0.00000  0.22330
      14     H     0.41202  0.41202  0.00000  0.17595

   Total alpha = 24.00000, Total beta = 24.00000, Total charge =  0.00000


*** PSI4 exiting successfully. Buy a developer a beer!
