    -----------------------------------------------------------------------
          Psi4: An Open-Source Ab Initio Electronic Structure Package
                              Psi4 (no tag) Driver

                          Git: Rev {detached?}  

    J. M. Turney, A. C. Simmonett, R. M. Parrish, E. G. Hohenstein,
    F. A. Evangelista, J. T. Fermann, B. J. Mintz, L. A. Burns, J. J. Wilke,
    M. L. Abrams, N. J. Russ, M. L. Leininger, C. L. Janssen, E. T. Seidl,
    W. D. Allen, H. F. Schaefer, R. A. King, E. F. Valeev, C. D. Sherrill,
    and T. D. Crawford, WIREs Comput. Mol. Sci. 2, 556-565 (2012)
    (doi: 10.1002/wcms.93)

                         Additional Contributions by
    A. E. DePrince, M. Saitow, U. Bozkaya, A. Yu. Sokolov
    -----------------------------------------------------------------------


    Psi4 started on: Tue Jul  5 16:31:10 2016

    Process ID:  21460
    PSI4DATADIR: /export131/home/mjharvey/miniconda3/share
    Memory level set to 256.000 MB

  ==> Input File <==

--------------------------------------------------------------------------
set {
	reference rhf
	basis 6-31G*
}


set_num_threads( 1 )
memory 2 gb

molecule MOL {
0 1

H	 2.822660	 1.908748	 -0.180739
C	 2.277897	 0.990010	 0.017732
C	 0.786421	 1.192633	 -0.230386
H	 2.448429	 0.703670	 1.049571
H	 2.698846	 0.217039	 -0.616186
N	 -0.000257	 -0.000071	 0.054619
H	 0.444076	 1.990281	 0.416865
H	 0.619725	 1.539915	 -1.254249
C	 -1.363055	 0.315058	 0.462241
C	 0.046929	 -0.971450	 -1.030210
C	 -2.412078	 -0.285320	 -0.468531
H	 -1.482241	 1.391144	 0.451970
H	 -1.549931	 -0.001174	 1.492681
C	 -0.136725	 -2.406697	 -0.546910
H	 1.014945	 -0.900616	 -1.509879
H	 -0.692149	 -0.737408	 -1.802074
H	 -2.262839	 0.075384	 -1.480151
H	 -2.369300	 -1.368867	 -0.491760
H	 -3.410332	 -0.003975	 -0.144961
H	 0.632503	 -2.658251	 0.174645
H	 -1.100389	 -2.561097	 -0.073556
H	 -0.067424	 -3.098752	 -1.381526

	symmetry c1
}
ee = energy('scf')
oeprop('DIPOLE', 'QUADRUPOLE', 'MULLIKEN_CHARGES')
f=open( 'psi4out.xyz', 'w' )
f.write( "22  " )
f.write( str(ee) + "\n" )
f.write( MOL.save_string_xyz() )
f.close()
--------------------------------------------------------------------------

  Memory set to   2.000 GiB by Python script.

*** tstart() called on cx1-3-15-2.cx1.hpc.ic.ac.uk
*** at Tue Jul  5 16:31:10 2016


         ---------------------------------------------------------
                                   SCF
            by Justin Turney, Rob Parrish, and Andy Simmonett
                              RHF Reference
                        1 Threads,   2000 MiB Core
         ---------------------------------------------------------

  ==> Geometry <==

    Molecular point group: c1
    Full point group: C1

    Geometry (in Angstrom), charge = 0, multiplicity = 1:

       Center              X                  Y                   Z               Mass       
    ------------   -----------------  -----------------  -----------------  -----------------
           H          2.940163283876     2.082022188346     0.078151679991     1.007825032070
           C          2.395400283876     1.163284188346     0.276622679991    12.000000000000
           C          0.903924283876     1.365907188346     0.028504679991    12.000000000000
           H          2.565932283876     0.876944188346     1.308461679991     1.007825032070
           H          2.816349283876     0.390313188346    -0.357295320009     1.007825032070
           N          0.117246283876     0.173203188346     0.313509679991    14.003074004780
           H          0.561579283876     2.163555188346     0.675755679991     1.007825032070
           H          0.737228283876     1.713189188346    -0.995358320009     1.007825032070
           C         -1.245551716124     0.488332188346     0.721131679991    12.000000000000
           C          0.164432283876    -0.798175811654    -0.771319320009    12.000000000000
           C         -2.294574716124    -0.112045811654    -0.209640320009    12.000000000000
           H         -1.364737716124     1.564418188346     0.710860679991     1.007825032070
           H         -1.432427716124     0.172100188346     1.751571679991     1.007825032070
           C         -0.019221716124    -2.233422811654    -0.288019320009    12.000000000000
           H          1.132448283876    -0.727341811654    -1.250988320009     1.007825032070
           H         -0.574645716124    -0.564133811654    -1.543183320009     1.007825032070
           H         -2.145335716124     0.248658188346    -1.221260320009     1.007825032070
           H         -2.251796716124    -1.195592811654    -0.232869320009     1.007825032070
           H         -3.292828716124     0.169299188346     0.113929679991     1.007825032070
           H          0.750006283876    -2.484976811654     0.433535679991     1.007825032070
           H         -0.982885716124    -2.387822811654     0.185334679991     1.007825032070
           H          0.050079283876    -2.925477811654    -1.122635320009     1.007825032070

  Running in c1 symmetry.

  Rotational constants: A =      0.11485  B =      0.06280  C =      0.04567 [cm^-1]
  Rotational constants: A =   3443.06821  B =   1882.62007  C =   1369.25394 [MHz]
  Nuclear repulsion =  342.325259300506957

  Charge       = 0
  Multiplicity = 1
  Electrons    = 58
  Nalpha       = 29
  Nbeta        = 29

  ==> Algorithm <==

  SCF Algorithm Type is DF.
  DIIS enabled.
  MOM disabled.
  Fractional occupation disabled.
  Guess Type is CORE.
  Energy threshold   = 1.00e-06
  Density threshold  = 1.00e-06
  Integral threshold = 0.00e+00

  ==> Primary Basis <==

  Basis Set: 6-31G*
    Number of shells: 72
    Number of basis function: 135
    Number of Cartesian functions: 135
    Spherical Harmonics?: false
    Max angular momentum: 2

  ==> Pre-Iterations <==

   -------------------------------------------------------
    Irrep   Nso     Nmo     Nalpha   Nbeta   Ndocc  Nsocc
   -------------------------------------------------------
     A        135     135       0       0       0       0
   -------------------------------------------------------
    Total     135     135      29      29      29       0
   -------------------------------------------------------

 OEINTS: Overlap, kinetic, potential, dipole, and quadrupole integrals
         stored in file 35.

  ==> Integral Setup <==

  ==> DFJK: Density-Fitted J/K Matrices <==

    J tasked:                  Yes
    K tasked:                  Yes
    wK tasked:                  No
    OpenMP threads:              1
    Integrals threads:           1
    Memory (MB):              1430
    Algorithm:                Core
    Integral Cache:           NONE
    Schwarz Cutoff:          1E-12
    Fitting Condition:       1E-12

   => Auxiliary Basis Set <=

  Basis Set: 
    Number of shells: 303
    Number of basis function: 942
    Number of Cartesian functions: 942
    Spherical Harmonics?: false
    Max angular momentum: 3

  Minimum eigenvalue in the overlap matrix is 3.2823247733E-03.
  Using Symmetric Orthogonalization.
  SCF Guess: Core (One-Electron) Hamiltonian.

  ==> Iterations <==

                           Total Energy        Delta E     RMS |[F,P]|

   @DF-RHF iter   1:  -168.31055204592514   -1.68311e+02   8.24132e-02 
   @DF-RHF iter   2:  -203.55523458089857   -3.52447e+01   5.05121e-02 DIIS
   @DF-RHF iter   3:  -242.31039074967254   -3.87552e+01   5.28848e-02 DIIS
   @DF-RHF iter   4:  -277.24793114180426   -3.49375e+01   2.85572e-02 DIIS
   @DF-RHF iter   5:  -281.87568342095864   -4.62775e+00   2.03550e-02 DIIS
   @DF-RHF iter   6:  -289.55247664875839   -7.67679e+00   8.75495e-03 DIIS
   @DF-RHF iter   7:  -290.29763623711591   -7.45160e-01   1.94154e-03 DIIS
   @DF-RHF iter   8:  -290.34038364379938   -4.27474e-02   7.85068e-04 DIIS
   @DF-RHF iter   9:  -290.34799747853452   -7.61383e-03   1.77183e-04 DIIS
   @DF-RHF iter  10:  -290.34851667456138   -5.19196e-04   5.30636e-05 DIIS
   @DF-RHF iter  11:  -290.34855100517149   -3.43306e-05   1.52338e-05 DIIS
   @DF-RHF iter  12:  -290.34855497524399   -3.97007e-06   3.25239e-06 DIIS
   @DF-RHF iter  13:  -290.34855515679982   -1.81556e-07   1.07787e-06 DIIS
   @DF-RHF iter  14:  -290.34855517643342   -1.96336e-08   2.96439e-07 DIIS

  ==> Post-Iterations <==

    Orbital Energies (a.u.)
    -----------------------

    Doubly Occupied:                                                      

       1A    -15.534214     2A    -11.240436     3A    -11.239064  
       4A    -11.236049     5A    -11.207186     6A    -11.204015  
       7A    -11.203056     8A     -1.224750     9A     -1.031108  
      10A     -1.013472    11A     -0.960429    12A     -0.862746  
      13A     -0.834914    14A     -0.764498    15A     -0.668560  
      16A     -0.639279    17A     -0.625492    18A     -0.595762  
      19A     -0.566299    20A     -0.548125    21A     -0.540925  
      22A     -0.530300    23A     -0.516906    24A     -0.504281  
      25A     -0.484772    26A     -0.474888    27A     -0.465095  
      28A     -0.462725    29A     -0.334484  

    Virtual:                                                              

      30A      0.233779    31A      0.249294    32A      0.265275  
      33A      0.277813    34A      0.294676    35A      0.302741  
      36A      0.310102    37A      0.321137    38A      0.325695  
      39A      0.339332    40A      0.341791    41A      0.357976  
      42A      0.375838    43A      0.384673    44A      0.392855  
      45A      0.411610    46A      0.419717    47A      0.427530  
      48A      0.449108    49A      0.488999    50A      0.512795  
      51A      0.710842    52A      0.719614    53A      0.731711  
      54A      0.738484    55A      0.773870    56A      0.790899  
      57A      0.795689    58A      0.817772    59A      0.871095  
      60A      0.892628    61A      0.912092    62A      0.942170  
      63A      0.953836    64A      0.963816    65A      0.989958  
      66A      1.047355    67A      1.071977    68A      1.109769  
      69A      1.136496    70A      1.141316    71A      1.149631  
      72A      1.166219    73A      1.176057    74A      1.188082  
      75A      1.192367    76A      1.199656    77A      1.205958  
      78A      1.220660    79A      1.238459    80A      1.253611  
      81A      1.269791    82A      1.272928    83A      1.298693  
      84A      1.315476    85A      1.333504    86A      1.343339  
      87A      1.392754    88A      1.524164    89A      1.540884  
      90A      1.651442    91A      1.687798    92A      1.723459  
      93A      1.793351    94A      1.820119    95A      1.893527  
      96A      1.966981    97A      2.007392    98A      2.059297  
      99A      2.120199   100A      2.185311   101A      2.228512  
     102A      2.274082   103A      2.283418   104A      2.296622  
     105A      2.304029   106A      2.328512   107A      2.349448  
     108A      2.394173   109A      2.412658   110A      2.468351  
     111A      2.513394   112A      2.561236   113A      2.636771  
     114A      2.644875   115A      2.664534   116A      2.677517  
     117A      2.689191   118A      2.701051   119A      2.732996  
     120A      2.770448   121A      2.841649   122A      2.853294  
     123A      2.907395   124A      3.022212   125A      3.085867  
     126A      3.109534   127A      3.239362   128A      3.251868  
     129A      4.503578   130A      4.630395   131A      4.675742  
     132A      4.686611   133A      4.863984   134A      4.883497  
     135A      4.986618  

    Final Occupation by Irrep:
              A 
    DOCC [    29 ]

  Energy converged.

  @DF-RHF Final Energy:  -290.34855517643342

   => Energetics <=

    Nuclear Repulsion Energy =            342.3252593005069571
    One-Electron Energy =               -1070.3199617923939968
    Two-Electron Energy =                 437.6461473154521400
    DFT Exchange-Correlation Energy =       0.0000000000000000
    Empirical Dispersion Energy =           0.0000000000000000
    PCM Polarization Energy =               0.0000000000000000
    EFP Energy =                            0.0000000000000000
    Total Energy =                       -290.3485551764348429

    Alert: EFP and PCM quantities not currently incorporated into SCF psivars.

Properties will be evaluated at   0.000000,   0.000000,   0.000000 Bohr
  ==> Properties <==


Properties computed using the SCF density matrix

  Nuclear Dipole Moment: (a.u.)
     X:    -0.4605      Y:    -0.8488      Z:    -1.3752

  Electronic Dipole Moment: (a.u.)
     X:     0.2886      Y:     1.0300      Z:     1.1138

  Dipole Moment: (a.u.)
     X:    -0.1719      Y:     0.1813      Z:    -0.2615     Total:     0.3616

  Dipole Moment: (Debye)
     X:    -0.4370      Y:     0.4607      Z:    -0.6646     Total:     0.9192


  Saving occupied orbitals to File 180.

*** tstop() called on cx1-3-15-2.cx1.hpc.ic.ac.uk at Tue Jul  5 16:31:24 2016
Module time:
	user time   =      13.70 seconds =       0.23 minutes
	system time =       0.07 seconds =       0.00 minutes
	total time  =         14 seconds =       0.23 minutes
Total time:
	user time   =      13.70 seconds =       0.23 minutes
	system time =       0.07 seconds =       0.00 minutes
	total time  =         14 seconds =       0.23 minutes


Properties will be evaluated at   0.000000,   0.000000,   0.000000 Bohr

Properties computed using the  density matrix

  Nuclear Dipole Moment: (a.u.)
     X:    -0.4605      Y:    -0.8488      Z:    -1.3752

  Electronic Dipole Moment: (a.u.)
     X:     0.2886      Y:     1.0300      Z:     1.1138

  Dipole Moment: (a.u.)
     X:    -0.1719      Y:     0.1813      Z:    -0.2615     Total:     0.3616

  Dipole Moment: (Debye)
     X:    -0.4370      Y:     0.4607      Z:    -0.6646     Total:     0.9192

  Quadrupole Moment: (Debye Ang)
    XX:   -47.5532     YY:   -46.9545     ZZ:   -48.1818
    XY:     0.1304     XZ:    -0.9923     YZ:     0.7982

  Traceless Quadrupole Moment: (Debye Ang)
    XX:     0.0099     YY:     0.6087     ZZ:    -0.6186
    XY:     0.1304     XZ:    -0.9923     YZ:     0.7982

  Mulliken Charges: (a.u.)
   Center  Symbol    Alpha    Beta     Spin     Total
       1     H     0.42404  0.42404  0.00000  0.15192
       2     C     3.23514  3.23514  0.00000 -0.47028
       3     C     3.05833  3.05833  0.00000 -0.11666
       4     H     0.41511  0.41511  0.00000  0.16978
       5     H     0.42143  0.42143  0.00000  0.15715
       6     N     3.78896  3.78896  0.00000 -0.57792
       7     H     0.41851  0.41851  0.00000  0.16299
       8     H     0.43403  0.43403  0.00000  0.13195
       9     C     3.04528  3.04528  0.00000 -0.09056
      10     C     3.06602  3.06602  0.00000 -0.13205
      11     C     3.26383  3.26383  0.00000 -0.52767
      12     H     0.42427  0.42427  0.00000  0.15147
      13     H     0.42052  0.42052  0.00000  0.15896
      14     C     3.23539  3.23539  0.00000 -0.47077
      15     H     0.41637  0.41637  0.00000  0.16725
      16     H     0.42725  0.42725  0.00000  0.14551
      17     H     0.41586  0.41586  0.00000  0.16827
      18     H     0.41434  0.41434  0.00000  0.17132
      19     H     0.41633  0.41633  0.00000  0.16734
      20     H     0.41453  0.41453  0.00000  0.17093
      21     H     0.42033  0.42033  0.00000  0.15934
      22     H     0.42413  0.42413  0.00000  0.15175

   Total alpha = 29.00000, Total beta = 29.00000, Total charge =  0.00000


*** PSI4 exiting successfully. Buy a developer a beer!
