    -----------------------------------------------------------------------
          Psi4: An Open-Source Ab Initio Electronic Structure Package
                              Psi4 (no tag) Driver

                          Git: Rev {detached?}  

    J. M. Turney, A. C. Simmonett, R. M. Parrish, E. G. Hohenstein,
    F. A. Evangelista, J. T. Fermann, B. J. Mintz, L. A. Burns, J. J. Wilke,
    M. L. Abrams, N. J. Russ, M. L. Leininger, C. L. Janssen, E. T. Seidl,
    W. D. Allen, H. F. Schaefer, R. A. King, E. F. Valeev, C. D. Sherrill,
    and T. D. Crawford, WIREs Comput. Mol. Sci. 2, 556-565 (2012)
    (doi: 10.1002/wcms.93)

                         Additional Contributions by
    A. E. DePrince, M. Saitow, U. Bozkaya, A. Yu. Sokolov
    -----------------------------------------------------------------------


    Psi4 started on: Tue Jul  5 16:28:50 2016

    Process ID:  24972
    PSI4DATADIR: /export131/home/mjharvey/miniconda3/share
    Memory level set to 256.000 MB

  ==> Input File <==

--------------------------------------------------------------------------
set {
	reference rhf
	basis 6-31G*
}


set_num_threads( 1 )
memory 2 gb

molecule MOL {
0 1

H	 2.707060	 -0.864338	 0.472197
N	 2.332695	 -0.069570	 0.000000
C	 0.936681	 -0.007078	 0.000000
H	 2.780058	 0.766372	 0.309590
C	 0.227108	 -0.002120	 -1.198267
C	 0.227108	 -0.002120	 1.198267
H	 0.761569	 -0.014657	 -2.132680
C	 -1.156334	 0.010459	 -1.192360
H	 0.761569	 -0.014657	 2.132680
C	 -1.156334	 0.010459	 1.192360
H	 -1.684791	 0.014915	 -2.129421
C	 -1.862085	 0.017996	 0.000000
H	 -1.684791	 0.014915	 2.129421
H	 -2.936703	 0.028387	 0.000000

	symmetry c1
}
ee = energy('scf')
oeprop('DIPOLE', 'QUADRUPOLE', 'MULLIKEN_CHARGES')
f=open( 'psi4out.xyz', 'w' )
f.write( "14  " )
f.write( str(ee) + "\n" )
f.write( MOL.save_string_xyz() )
f.close()
--------------------------------------------------------------------------

  Memory set to   2.000 GiB by Python script.

*** tstart() called on cx1-1-2-1.cx1.hpc.ic.ac.uk
*** at Tue Jul  5 16:28:51 2016


         ---------------------------------------------------------
                                   SCF
            by Justin Turney, Rob Parrish, and Andy Simmonett
                              RHF Reference
                        1 Threads,   2000 MiB Core
         ---------------------------------------------------------

  ==> Geometry <==

    Molecular point group: c1
    Full point group: C1

    Geometry (in Angstrom), charge = 0, multiplicity = 1:

       Center              X                  Y                   Z               Mass       
    ------------   -----------------  -----------------  -----------------  -----------------
           H          2.707402708208    -0.856679911138     0.463730175171     1.007825032070
           N          2.333037708208    -0.061911911138    -0.008466824829    14.003074004780
           C          0.937023708208     0.000580088862    -0.008466824829    12.000000000000
           H          2.780400708208     0.774030088862     0.301123175171     1.007825032070
           C          0.227450708208     0.005538088862    -1.206733824829    12.000000000000
           C          0.227450708208     0.005538088862     1.189800175171    12.000000000000
           H          0.761911708208    -0.006998911138    -2.141146824829     1.007825032070
           C         -1.155991291792     0.018117088862    -1.200826824829    12.000000000000
           H          0.761911708208    -0.006998911138     2.124213175171     1.007825032070
           C         -1.155991291792     0.018117088862     1.183893175171    12.000000000000
           H         -1.684448291792     0.022573088862    -2.137887824829     1.007825032070
           C         -1.861742291792     0.025654088862    -0.008466824829    12.000000000000
           H         -1.684448291792     0.022573088862     2.120954175171     1.007825032070
           H         -2.936360291792     0.036045088862    -0.008466824829     1.007825032070

  Running in c1 symmetry.

  Rotational constants: A =      0.19045  B =      0.08695  C =      0.06027 [cm^-1]
  Rotational constants: A =   5709.57099  B =   2606.66460  C =   1806.95858 [MHz]
  Nuclear repulsion =  272.966216267009315

  Charge       = 0
  Multiplicity = 1
  Electrons    = 50
  Nalpha       = 25
  Nbeta        = 25

  ==> Algorithm <==

  SCF Algorithm Type is DF.
  DIIS enabled.
  MOM disabled.
  Fractional occupation disabled.
  Guess Type is CORE.
  Energy threshold   = 1.00e-06
  Density threshold  = 1.00e-06
  Integral threshold = 0.00e+00

  ==> Primary Basis <==

  Basis Set: 6-31G*
    Number of shells: 56
    Number of basis function: 119
    Number of Cartesian functions: 119
    Spherical Harmonics?: false
    Max angular momentum: 2

  ==> Pre-Iterations <==

   -------------------------------------------------------
    Irrep   Nso     Nmo     Nalpha   Nbeta   Ndocc  Nsocc
   -------------------------------------------------------
     A        119     119       0       0       0       0
   -------------------------------------------------------
    Total     119     119      25      25      25       0
   -------------------------------------------------------

 OEINTS: Overlap, kinetic, potential, dipole, and quadrupole integrals
         stored in file 35.

  ==> Integral Setup <==

  ==> DFJK: Density-Fitted J/K Matrices <==

    J tasked:                  Yes
    K tasked:                  Yes
    wK tasked:                  No
    OpenMP threads:              1
    Integrals threads:           1
    Memory (MB):              1430
    Algorithm:                Core
    Integral Cache:           NONE
    Schwarz Cutoff:          1E-12
    Fitting Condition:       1E-12

   => Auxiliary Basis Set <=

  Basis Set: 
    Number of shells: 231
    Number of basis function: 742
    Number of Cartesian functions: 742
    Spherical Harmonics?: false
    Max angular momentum: 3

  Minimum eigenvalue in the overlap matrix is 4.2709201471E-04.
  Using Symmetric Orthogonalization.
  SCF Guess: Core (One-Electron) Hamiltonian.

  ==> Iterations <==

                           Total Energy        Delta E     RMS |[F,P]|

   @DF-RHF iter   1:  -224.87604635400800   -2.24876e+02   7.09489e-02 
   @DF-RHF iter   2:  -234.17702961360925   -9.30098e+00   5.32111e-02 DIIS
   @DF-RHF iter   3:  -268.15047594782658   -3.39734e+01   3.58909e-02 DIIS
   @DF-RHF iter   4:  -267.93386814471404    2.16608e-01   3.76601e-02 DIIS
   @DF-RHF iter   5:  -285.10593244788521   -1.71721e+01   8.74482e-03 DIIS
   @DF-RHF iter   6:  -285.67772135020147   -5.71789e-01   2.46274e-03 DIIS
   @DF-RHF iter   7:  -285.71452029923006   -3.67989e-02   9.70063e-04 DIIS
   @DF-RHF iter   8:  -285.72119671016100   -6.67641e-03   3.72199e-04 DIIS
   @DF-RHF iter   9:  -285.72223087243157   -1.03416e-03   1.51829e-04 DIIS
   @DF-RHF iter  10:  -285.72242725363225   -1.96381e-04   3.32205e-05 DIIS
   @DF-RHF iter  11:  -285.72243975173166   -1.24981e-05   1.19124e-05 DIIS
   @DF-RHF iter  12:  -285.72244162408793   -1.87236e-06   5.75023e-06 DIIS
   @DF-RHF iter  13:  -285.72244220084696   -5.76759e-07   1.79742e-06 DIIS
   @DF-RHF iter  14:  -285.72244230355767   -1.02711e-07   8.36463e-07 DIIS

  ==> Post-Iterations <==

    Orbital Energies (a.u.)
    -----------------------

    Doubly Occupied:                                                      

       1A    -15.539746     2A    -11.256927     3A    -11.227228  
       4A    -11.226122     5A    -11.224486     6A    -11.222094  
       7A    -11.219897     8A     -1.209575     9A     -1.124925  
      10A     -1.009801    11A     -0.982559    12A     -0.823016  
      13A     -0.807472    14A     -0.701596    15A     -0.667586  
      16A     -0.649202    17A     -0.625106    18A     -0.592334  
      19A     -0.579656    20A     -0.506051    21A     -0.493606  
      22A     -0.490492    23A     -0.394682    24A     -0.329389  
      25A     -0.321725  

    Virtual:                                                              

      26A      0.148009    27A      0.153767    28A      0.239788  
      29A      0.245232    30A      0.297845    31A      0.310649  
      32A      0.313937    33A      0.338236    34A      0.346988  
      35A      0.390531    36A      0.453476    37A      0.485782  
      38A      0.494161    39A      0.538902    40A      0.565690  
      41A      0.680655    42A      0.746341    43A      0.759078  
      44A      0.760908    45A      0.787608    46A      0.826246  
      47A      0.830655    48A      0.837660    49A      0.844756  
      50A      0.847612    51A      0.853699    52A      0.898918  
      53A      0.914956    54A      0.930354    55A      0.999505  
      56A      1.015856    57A      1.048012    58A      1.074575  
      59A      1.118204    60A      1.121186    61A      1.133032  
      62A      1.139139    63A      1.175048    64A      1.204299  
      65A      1.215765    66A      1.233789    67A      1.239788  
      68A      1.276015    69A      1.305125    70A      1.360407  
      71A      1.382236    72A      1.459368    73A      1.463397  
      74A      1.517459    75A      1.602349    76A      1.679259  
      77A      1.719441    78A      1.729883    79A      1.749837  
      80A      1.775871    81A      1.786628    82A      1.803717  
      83A      2.096399    84A      2.103631    85A      2.146321  
      86A      2.189359    87A      2.223708    88A      2.227371  
      89A      2.299083    90A      2.330575    91A      2.406661  
      92A      2.422223    93A      2.463120    94A      2.471572  
      95A      2.518279    96A      2.538085    97A      2.610587  
      98A      2.658099    99A      2.659276   100A      2.697886  
     101A      2.822033   102A      2.919524   103A      2.921877  
     104A      2.949868   105A      3.044784   106A      3.098124  
     107A      3.105136   108A      3.117701   109A      3.206496  
     110A      3.255073   111A      3.484733   112A      3.841601  
     113A      4.284634   114A      4.531402   115A      4.551979  
     116A      4.567521   117A      4.766322   118A      4.793723  
     119A      5.138980  

    Final Occupation by Irrep:
              A 
    DOCC [    25 ]

  Energy converged.

  @DF-RHF Final Energy:  -285.72244230355767

   => Energetics <=

    Nuclear Repulsion Energy =            272.9662162670093153
    One-Electron Energy =                -926.9267793950244823
    Two-Electron Energy =                 368.2381208244582353
    DFT Exchange-Correlation Energy =       0.0000000000000000
    Empirical Dispersion Energy =           0.0000000000000000
    PCM Polarization Energy =               0.0000000000000000
    EFP Energy =                            0.0000000000000000
    Total Energy =                       -285.7224423035568748

    Alert: EFP and PCM quantities not currently incorporated into SCF psivars.

Properties will be evaluated at   0.000000,   0.000000,   0.000000 Bohr
  ==> Properties <==


Properties computed using the SCF density matrix

  Nuclear Dipole Moment: (a.u.)
     X:     0.6554      Y:    -0.0143      Z:     0.6774

  Electronic Dipole Moment: (a.u.)
     X:    -0.5967      Y:     0.0572      Z:    -0.2063

  Dipole Moment: (a.u.)
     X:     0.0587      Y:     0.0429      Z:     0.4711     Total:     0.4767

  Dipole Moment: (Debye)
     X:     0.1492      Y:     0.1091      Z:     1.1973     Total:     1.2115


  Saving occupied orbitals to File 180.

*** tstop() called on cx1-1-2-1.cx1.hpc.ic.ac.uk at Tue Jul  5 16:28:59 2016
Module time:
	user time   =       7.58 seconds =       0.13 minutes
	system time =       0.05 seconds =       0.00 minutes
	total time  =          8 seconds =       0.13 minutes
Total time:
	user time   =       7.58 seconds =       0.13 minutes
	system time =       0.05 seconds =       0.00 minutes
	total time  =          8 seconds =       0.13 minutes


Properties will be evaluated at   0.000000,   0.000000,   0.000000 Bohr

Properties computed using the  density matrix

  Nuclear Dipole Moment: (a.u.)
     X:     0.6554      Y:    -0.0143      Z:     0.6774

  Electronic Dipole Moment: (a.u.)
     X:    -0.5967      Y:     0.0572      Z:    -0.2063

  Dipole Moment: (a.u.)
     X:     0.0587      Y:     0.0429      Z:     0.4711     Total:     0.4767

  Dipole Moment: (Debye)
     X:     0.1492      Y:     0.1091      Z:     1.1973     Total:     1.2115

  Quadrupole Moment: (Debye Ang)
    XX:   -36.8605     YY:   -43.5075     ZZ:   -37.9976
    XY:     0.3416     XZ:     4.0202     YZ:    -0.3733

  Traceless Quadrupole Moment: (Debye Ang)
    XX:     2.5947     YY:    -4.0523     ZZ:     1.4576
    XY:     0.3416     XZ:     4.0202     YZ:    -0.3733

  Mulliken Charges: (a.u.)
   Center  Symbol    Alpha    Beta     Spin     Total
       1     H     0.32170  0.32170  0.00000  0.35660
       2     N     3.95356  3.95356  0.00000 -0.90712
       3     C     2.89336  2.89336  0.00000  0.21328
       4     H     0.32178  0.32178  0.00000  0.35644
       5     C     3.09828  3.09828  0.00000 -0.19656
       6     C     3.10829  3.10829  0.00000 -0.21657
       7     H     0.39436  0.39436  0.00000  0.21128
       8     C     3.10109  3.10109  0.00000 -0.20218
       9     H     0.40300  0.40300  0.00000  0.19400
      10     C     3.10045  3.10045  0.00000 -0.20091
      11     H     0.40090  0.40090  0.00000  0.19819
      12     C     3.10161  3.10161  0.00000 -0.20323
      13     H     0.40191  0.40191  0.00000  0.19618
      14     H     0.39971  0.39971  0.00000  0.20057

   Total alpha = 25.00000, Total beta = 25.00000, Total charge = -0.00000


*** PSI4 exiting successfully. Buy a developer a beer!
