    -----------------------------------------------------------------------
          Psi4: An Open-Source Ab Initio Electronic Structure Package
                              Psi4 (no tag) Driver

                          Git: Rev {detached?}  

    J. M. Turney, A. C. Simmonett, R. M. Parrish, E. G. Hohenstein,
    F. A. Evangelista, J. T. Fermann, B. J. Mintz, L. A. Burns, J. J. Wilke,
    M. L. Abrams, N. J. Russ, M. L. Leininger, C. L. Janssen, E. T. Seidl,
    W. D. Allen, H. F. Schaefer, R. A. King, E. F. Valeev, C. D. Sherrill,
    and T. D. Crawford, WIREs Comput. Mol. Sci. 2, 556-565 (2012)
    (doi: 10.1002/wcms.93)

                         Additional Contributions by
    A. E. DePrince, M. Saitow, U. Bozkaya, A. Yu. Sokolov
    -----------------------------------------------------------------------


    Psi4 started on: Tue Jul  5 16:58:18 2016

    Process ID:  11626
    PSI4DATADIR: /export131/home/mjharvey/miniconda3/share
    Memory level set to 256.000 MB

  ==> Input File <==

--------------------------------------------------------------------------
set {
	reference rhf
	basis 6-31G*
}


set_num_threads( 1 )
memory 2 gb

molecule MOL {
0 1

O	 -2.042549	 -1.228399	 -0.269030
C	 -1.653912	 -0.146171	 0.050137
C	 -0.332303	 0.024011	 0.778412
C	 -2.438579	 1.106236	 -0.272369
C	 0.544965	 1.078355	 0.085136
H	 -0.501332	 0.306447	 1.813807
H	 0.175194	 -0.934240	 0.767308
C	 1.037144	 0.623282	 -1.289528
H	 1.402553	 1.313977	 0.712915
H	 -0.028857	 1.994840	 -0.014484
C	 -0.080167	 0.041664	 -2.154712
H	 1.494818	 1.464048	 -1.806319
H	 1.819884	 -0.120599	 -1.160975
H	 -0.863143	 0.774050	 -2.329677
H	 -0.535496	 -0.821421	 -1.678057
H	 0.298122	 -0.275103	 -3.121451
H	 -3.277823	 0.863061	 -0.908988
H	 -1.806773	 1.843019	 -0.759671
H	 -2.802853	 1.554979	 0.648059

	symmetry c1
}
set optking {
	frozen_dihedral = ("
		11 8 5 9,
		9 5 3 2
	")
}

ee = energy('scf')
oeprop('DIPOLE', 'QUADRUPOLE', 'MULLIKEN_CHARGES')
f=open( 'psi4out.xyz', 'w' )
f.write( "19  " )
f.write( str(ee) + "\n" )
f.write( MOL.save_string_xyz() )
f.close()
--------------------------------------------------------------------------

  Memory set to   2.000 GiB by Python script.

*** tstart() called on cx1-1-2-2.cx1.hpc.ic.ac.uk
*** at Tue Jul  5 16:58:18 2016


         ---------------------------------------------------------
                                   SCF
            by Justin Turney, Rob Parrish, and Andy Simmonett
                              RHF Reference
                        1 Threads,   2000 MiB Core
         ---------------------------------------------------------

  ==> Geometry <==

    Molecular point group: c1
    Full point group: C1

    Geometry (in Angstrom), charge = 0, multiplicity = 1:

       Center              X                  Y                   Z               Mass       
    ------------   -----------------  -----------------  -----------------  -----------------
           O         -1.319126276333    -1.439269276160     0.188933877634    15.994914619560
           C         -0.930489276333    -0.357041276160     0.508100877634    12.000000000000
           C          0.391119723667    -0.186859276160     1.236375877634    12.000000000000
           C         -1.715156276333     0.895365723840     0.185594877634    12.000000000000
           C          1.268387723667     0.867484723840     0.543099877634    12.000000000000
           H          0.222090723667     0.095576723840     2.271770877634     1.007825032070
           H          0.898616723667    -1.145110276160     1.225271877634     1.007825032070
           C          1.760566723667     0.412411723840    -0.831564122366    12.000000000000
           H          2.125975723667     1.103106723840     1.170878877634     1.007825032070
           H          0.694565723667     1.783969723840     0.443479877634     1.007825032070
           C          0.643255723667    -0.169206276160    -1.696748122366    12.000000000000
           H          2.218240723667     1.253177723840    -1.348355122366     1.007825032070
           H          2.543306723667    -0.331469276160    -0.703011122366     1.007825032070
           H         -0.139720276333     0.563179723840    -1.871713122366     1.007825032070
           H          0.187926723667    -1.032291276160    -1.220093122366     1.007825032070
           H          1.021544723667    -0.485973276160    -2.663487122366     1.007825032070
           H         -2.554400276333     0.652190723840    -0.451024122366     1.007825032070
           H         -1.083350276333     1.632148723840    -0.301707122366     1.007825032070
           H         -2.079430276333     1.344108723840     1.106022877634     1.007825032070

  Running in c1 symmetry.

  Rotational constants: A =      0.11886  B =      0.06863  C =      0.06153 [cm^-1]
  Rotational constants: A =   3563.31641  B =   2057.57086  C =   1844.51519 [MHz]
  Nuclear repulsion =  325.463993361722032

  Charge       = 0
  Multiplicity = 1
  Electrons    = 56
  Nalpha       = 28
  Nbeta        = 28

  ==> Algorithm <==

  SCF Algorithm Type is DF.
  DIIS enabled.
  MOM disabled.
  Fractional occupation disabled.
  Guess Type is CORE.
  Energy threshold   = 1.00e-06
  Density threshold  = 1.00e-06
  Integral threshold = 0.00e+00

  ==> Primary Basis <==

  Basis Set: 6-31G*
    Number of shells: 66
    Number of basis function: 129
    Number of Cartesian functions: 129
    Spherical Harmonics?: false
    Max angular momentum: 2

  ==> Pre-Iterations <==

   -------------------------------------------------------
    Irrep   Nso     Nmo     Nalpha   Nbeta   Ndocc  Nsocc
   -------------------------------------------------------
     A        129     129       0       0       0       0
   -------------------------------------------------------
    Total     129     129      28      28      28       0
   -------------------------------------------------------

 OEINTS: Overlap, kinetic, potential, dipole, and quadrupole integrals
         stored in file 35.

  ==> Integral Setup <==

  ==> DFJK: Density-Fitted J/K Matrices <==

    J tasked:                  Yes
    K tasked:                  Yes
    wK tasked:                  No
    OpenMP threads:              1
    Integrals threads:           1
    Memory (MB):              1430
    Algorithm:                Core
    Integral Cache:           NONE
    Schwarz Cutoff:          1E-12
    Fitting Condition:       1E-12

   => Auxiliary Basis Set <=

  Basis Set: 
    Number of shells: 276
    Number of basis function: 867
    Number of Cartesian functions: 867
    Spherical Harmonics?: false
    Max angular momentum: 3

  Minimum eigenvalue in the overlap matrix is 3.1096503793E-03.
  Using Symmetric Orthogonalization.
  SCF Guess: Core (One-Electron) Hamiltonian.

  ==> Iterations <==

                           Total Energy        Delta E     RMS |[F,P]|

   @DF-RHF iter   1:  -240.07490040604375   -2.40075e+02   6.89992e-02 
   @DF-RHF iter   2:  -218.97106306290652    2.11038e+01   5.50711e-02 DIIS
   @DF-RHF iter   3:  -261.12391075112123   -4.21528e+01   5.35115e-02 DIIS
   @DF-RHF iter   4:  -306.81982001362792   -4.56959e+01   1.50602e-02 DIIS
   @DF-RHF iter   5:  -308.58743624869123   -1.76762e+00   7.65708e-03 DIIS
   @DF-RHF iter   6:  -309.00270499284909   -4.15269e-01   2.14459e-03 DIIS
   @DF-RHF iter   7:  -309.03732352722238   -3.46185e-02   6.55578e-04 DIIS
   @DF-RHF iter   8:  -309.04166267971334   -4.33915e-03   1.57704e-04 DIIS
   @DF-RHF iter   9:  -309.04199597190927   -3.33292e-04   4.68355e-05 DIIS
   @DF-RHF iter  10:  -309.04203620141016   -4.02295e-05   1.37282e-05 DIIS
   @DF-RHF iter  11:  -309.04204135489113   -5.15348e-06   6.22978e-06 DIIS
   @DF-RHF iter  12:  -309.04204264376563   -1.28887e-06   2.80357e-06 DIIS
   @DF-RHF iter  13:  -309.04204301302377   -3.69258e-07   1.23370e-06 DIIS
   @DF-RHF iter  14:  -309.04204309545378   -8.24300e-08   4.58721e-07 DIIS

  ==> Post-Iterations <==

    Orbital Energies (a.u.)
    -----------------------

    Doubly Occupied:                                                      

       1A    -20.544714     2A    -11.327273     3A    -11.230961  
       4A    -11.230012     5A    -11.227801     6A    -11.222094  
       7A    -11.203155     8A     -1.395795     9A     -1.100245  
      10A     -1.020391    11A     -0.982729    12A     -0.902263  
      13A     -0.800184    14A     -0.733736    15A     -0.663528  
      16A     -0.657418    17A     -0.628718    18A     -0.611372  
      19A     -0.583215    20A     -0.566609    21A     -0.548764  
      22A     -0.544501    23A     -0.523980    24A     -0.508126  
      25A     -0.480402    26A     -0.466231    27A     -0.444404  
      28A     -0.398817  

    Virtual:                                                              

      29A      0.160120    30A      0.217521    31A      0.261434  
      32A      0.274122    33A      0.281872    34A      0.296133  
      35A      0.306958    36A      0.321799    37A      0.332507  
      38A      0.336638    39A      0.347250    40A      0.373222  
      41A      0.383363    42A      0.394396    43A      0.403021  
      44A      0.428180    45A      0.456732    46A      0.498328  
      47A      0.546795    48A      0.705722    49A      0.714629  
      50A      0.731351    51A      0.742874    52A      0.777642  
      53A      0.796657    54A      0.829343    55A      0.863881  
      56A      0.907193    57A      0.923637    58A      0.939141  
      59A      0.960300    60A      0.971196    61A      1.001305  
      62A      1.017745    63A      1.042722    64A      1.070082  
      65A      1.115338    66A      1.127772    67A      1.144770  
      68A      1.150266    69A      1.165292    70A      1.187707  
      71A      1.192048    72A      1.212958    73A      1.225885  
      74A      1.244517    75A      1.252616    76A      1.256669  
      77A      1.285578    78A      1.296668    79A      1.324252  
      80A      1.379525    81A      1.459601    82A      1.484876  
      83A      1.517769    84A      1.642535    85A      1.665093  
      86A      1.730042    87A      1.789107    88A      1.855694  
      89A      1.881407    90A      1.964152    91A      1.992633  
      92A      2.051689    93A      2.061158    94A      2.085744  
      95A      2.118078    96A      2.166390    97A      2.218087  
      98A      2.278006    99A      2.282080   100A      2.296880  
     101A      2.322985   102A      2.336908   103A      2.404448  
     104A      2.449325   105A      2.452671   106A      2.515698  
     107A      2.584436   108A      2.641736   109A      2.647758  
     110A      2.692132   111A      2.695555   112A      2.741958  
     113A      2.755328   114A      2.778512   115A      2.866758  
     116A      2.950068   117A      2.976130   118A      3.008021  
     119A      3.088037   120A      3.121938   121A      3.381927  
     122A      3.390854   123A      4.531902   124A      4.556957  
     125A      4.646830   126A      4.767649   127A      4.819508  
     128A      4.968488   129A      5.028556  

    Final Occupation by Irrep:
              A 
    DOCC [    28 ]

  Energy converged.

  @DF-RHF Final Energy:  -309.04204309545378

   => Energetics <=

    Nuclear Repulsion Energy =            325.4639933617220322
    One-Electron Energy =               -1063.9170806761708263
    Two-Electron Energy =                 429.4110442189949026
    DFT Exchange-Correlation Energy =       0.0000000000000000
    Empirical Dispersion Energy =           0.0000000000000000
    PCM Polarization Energy =               0.0000000000000000
    EFP Energy =                            0.0000000000000000
    Total Energy =                       -309.0420430954538915

    Alert: EFP and PCM quantities not currently incorporated into SCF psivars.

Properties will be evaluated at   0.000000,   0.000000,   0.000000 Bohr
  ==> Properties <==


Properties computed using the SCF density matrix

  Nuclear Dipole Moment: (a.u.)
     X:     3.7954      Y:     5.0860      Z:    -2.1946

  Electronic Dipole Moment: (a.u.)
     X:    -3.3425      Y:    -4.0104      Z:     2.5128

  Dipole Moment: (a.u.)
     X:     0.4530      Y:     1.0756      Z:     0.3182     Total:     1.2097

  Dipole Moment: (Debye)
     X:     1.1513      Y:     2.7339      Z:     0.8087     Total:     3.0747


  Saving occupied orbitals to File 180.

*** tstop() called on cx1-1-2-2.cx1.hpc.ic.ac.uk at Tue Jul  5 16:58:30 2016
Module time:
	user time   =      10.98 seconds =       0.18 minutes
	system time =       0.05 seconds =       0.00 minutes
	total time  =         12 seconds =       0.20 minutes
Total time:
	user time   =      10.98 seconds =       0.18 minutes
	system time =       0.05 seconds =       0.00 minutes
	total time  =         12 seconds =       0.20 minutes


Properties will be evaluated at   0.000000,   0.000000,   0.000000 Bohr

Properties computed using the  density matrix

  Nuclear Dipole Moment: (a.u.)
     X:     3.7954      Y:     5.0860      Z:    -2.1946

  Electronic Dipole Moment: (a.u.)
     X:    -3.3425      Y:    -4.0104      Z:     2.5128

  Dipole Moment: (a.u.)
     X:     0.4530      Y:     1.0756      Z:     0.3182     Total:     1.2097

  Dipole Moment: (Debye)
     X:     1.1513      Y:     2.7339      Z:     0.8087     Total:     3.0747

  Quadrupole Moment: (Debye Ang)
    XX:   -46.1679     YY:   -49.2350     ZZ:   -43.7122
    XY:    -4.6581     XZ:    -0.2489     YZ:     0.3581

  Traceless Quadrupole Moment: (Debye Ang)
    XX:     0.2038     YY:    -2.8633     ZZ:     2.6595
    XY:    -4.6581     XZ:    -0.2489     YZ:     0.3581

  Mulliken Charges: (a.u.)
   Center  Symbol    Alpha    Beta     Spin     Total
       1     O     4.26699  4.26699  0.00000 -0.53399
       2     C     2.73741  2.73741  0.00000  0.52519
       3     C     3.20185  3.20185  0.00000 -0.40371
       4     C     3.28878  3.28878  0.00000 -0.57756
       5     C     3.17208  3.17208  0.00000 -0.34416
       6     H     0.40516  0.40516  0.00000  0.18967
       7     H     0.39956  0.39956  0.00000  0.20088
       8     C     3.14806  3.14806  0.00000 -0.29612
       9     H     0.41268  0.41268  0.00000  0.17465
      10     H     0.41927  0.41927  0.00000  0.16146
      11     C     3.27662  3.27662  0.00000 -0.55325
      12     H     0.41930  0.41930  0.00000  0.16141
      13     H     0.41900  0.41900  0.00000  0.16200
      14     H     0.42178  0.42178  0.00000  0.15645
      15     H     0.38763  0.38763  0.00000  0.22473
      16     H     0.41425  0.41425  0.00000  0.17150
      17     H     0.39554  0.39554  0.00000  0.20892
      18     H     0.40699  0.40699  0.00000  0.18602
      19     H     0.40705  0.40705  0.00000  0.18591

   Total alpha = 28.00000, Total beta = 28.00000, Total charge =  0.00000


*** PSI4 exiting successfully. Buy a developer a beer!
