    -----------------------------------------------------------------------
          Psi4: An Open-Source Ab Initio Electronic Structure Package
                              Psi4 (no tag) Driver

                          Git: Rev {detached?}  

    J. M. Turney, A. C. Simmonett, R. M. Parrish, E. G. Hohenstein,
    F. A. Evangelista, J. T. Fermann, B. J. Mintz, L. A. Burns, J. J. Wilke,
    M. L. Abrams, N. J. Russ, M. L. Leininger, C. L. Janssen, E. T. Seidl,
    W. D. Allen, H. F. Schaefer, R. A. King, E. F. Valeev, C. D. Sherrill,
    and T. D. Crawford, WIREs Comput. Mol. Sci. 2, 556-565 (2012)
    (doi: 10.1002/wcms.93)

                         Additional Contributions by
    A. E. DePrince, M. Saitow, U. Bozkaya, A. Yu. Sokolov
    -----------------------------------------------------------------------


    Psi4 started on: Tue Jul  5 16:48:16 2016

    Process ID:  31981
    PSI4DATADIR: /export131/home/mjharvey/miniconda3/share
    Memory level set to 256.000 MB

  ==> Input File <==

--------------------------------------------------------------------------
set {
	reference rhf
	basis 6-31G*
}


set_num_threads( 1 )
memory 2 gb

molecule MOL {
0 1

H	 -2.256656	 0.640799	 2.245119
O	 -1.917411	 -0.045404	 1.688510
C	 -2.026376	 0.340750	 0.341611
C	 -0.673256	 0.843270	 -0.132153
H	 -2.339397	 -0.503104	 -0.270651
H	 -2.774606	 1.124267	 0.228006
C	 0.486613	 -0.083066	 0.235839
H	 -0.715586	 0.970948	 -1.210718
H	 -0.508072	 1.829858	 0.297090
C	 0.765248	 -0.120712	 1.739421
H	 1.378736	 0.236967	 -0.292564
H	 0.264762	 -1.091045	 -0.112873
C	 1.446297	 1.148314	 2.250711
H	 -0.170518	 -0.267562	 2.274673
H	 1.387866	 -0.982475	 1.972133
H	 0.831797	 2.024275	 2.063706
H	 1.629342	 1.094331	 3.319601
H	 2.402341	 1.305563	 1.759016

	symmetry c1
}
set optking {
	frozen_dihedral = ("
		14 10 7 11,
		10 7 4 8,
		2 3 4 8
	")
}

ee = energy('scf')
oeprop('DIPOLE', 'QUADRUPOLE', 'MULLIKEN_CHARGES')
f=open( 'psi4out.xyz', 'w' )
f.write( "18  " )
f.write( str(ee) + "\n" )
f.write( MOL.save_string_xyz() )
f.close()
--------------------------------------------------------------------------

  Memory set to   2.000 GiB by Python script.

*** tstart() called on cx1-3-2-3.cx1.hpc.ic.ac.uk
*** at Tue Jul  5 16:48:16 2016


         ---------------------------------------------------------
                                   SCF
            by Justin Turney, Rob Parrish, and Andy Simmonett
                              RHF Reference
                        1 Threads,   2000 MiB Core
         ---------------------------------------------------------

  ==> Geometry <==

    Molecular point group: c1
    Full point group: C1

    Geometry (in Angstrom), charge = 0, multiplicity = 1:

       Center              X                  Y                   Z               Mass       
    ------------   -----------------  -----------------  -----------------  -----------------
           H         -1.898343631494     0.286052410641     1.193892549933     1.007825032070
           O         -1.559098631494    -0.400150589359     0.637283549933    15.994914619560
           C         -1.668063631494    -0.013996589359    -0.709615450067    12.000000000000
           C         -0.314943631494     0.488523410641    -1.183379450067    12.000000000000
           H         -1.981084631494    -0.857850589359    -1.321877450067     1.007825032070
           H         -2.416293631494     0.769520410641    -0.823220450067     1.007825032070
           C          0.844925368506    -0.437812589359    -0.815387450067    12.000000000000
           H         -0.357273631494     0.616201410641    -2.261944450067     1.007825032070
           H         -0.149759631494     1.475111410641    -0.754136450067     1.007825032070
           C          1.123560368506    -0.475458589359     0.688194549933    12.000000000000
           H          1.737048368506    -0.117779589359    -1.343790450067     1.007825032070
           H          0.623074368506    -1.445791589359    -1.164099450067     1.007825032070
           C          1.804609368506     0.793567410641     1.199484549933    12.000000000000
           H          0.187794368506    -0.622308589359     1.223446549933     1.007825032070
           H          1.746178368506    -1.337221589359     0.920906549933     1.007825032070
           H          1.190109368506     1.669528410641     1.012479549933     1.007825032070
           H          1.987654368506     0.739584410641     2.268374549933     1.007825032070
           H          2.760653368506     0.950816410641     0.707789549933     1.007825032070

  Running in c1 symmetry.

  Rotational constants: A =      0.17596  B =      0.07836  C =      0.06648 [cm^-1]
  Rotational constants: A =   5275.29428  B =   2349.28610  C =   1993.15408 [MHz]
  Nuclear repulsion =  263.619704632111279

  Charge       = 0
  Multiplicity = 1
  Electrons    = 50
  Nalpha       = 25
  Nbeta        = 25

  ==> Algorithm <==

  SCF Algorithm Type is DF.
  DIIS enabled.
  MOM disabled.
  Fractional occupation disabled.
  Guess Type is CORE.
  Energy threshold   = 1.00e-06
  Density threshold  = 1.00e-06
  Integral threshold = 0.00e+00

  ==> Primary Basis <==

  Basis Set: 6-31G*
    Number of shells: 60
    Number of basis function: 114
    Number of Cartesian functions: 114
    Spherical Harmonics?: false
    Max angular momentum: 2

  ==> Pre-Iterations <==

   -------------------------------------------------------
    Irrep   Nso     Nmo     Nalpha   Nbeta   Ndocc  Nsocc
   -------------------------------------------------------
     A        114     114       0       0       0       0
   -------------------------------------------------------
    Total     114     114      25      25      25       0
   -------------------------------------------------------

 OEINTS: Overlap, kinetic, potential, dipole, and quadrupole integrals
         stored in file 35.

  ==> Integral Setup <==

  ==> DFJK: Density-Fitted J/K Matrices <==

    J tasked:                  Yes
    K tasked:                  Yes
    wK tasked:                  No
    OpenMP threads:              1
    Integrals threads:           1
    Memory (MB):              1430
    Algorithm:                Core
    Integral Cache:           NONE
    Schwarz Cutoff:          1E-12
    Fitting Condition:       1E-12

   => Auxiliary Basis Set <=

  Basis Set: 
    Number of shells: 252
    Number of basis function: 786
    Number of Cartesian functions: 786
    Spherical Harmonics?: false
    Max angular momentum: 3

  Minimum eigenvalue in the overlap matrix is 4.6327501637E-03.
  Using Symmetric Orthogonalization.
  SCF Guess: Core (One-Electron) Hamiltonian.

  ==> Iterations <==

                           Total Energy        Delta E     RMS |[F,P]|

   @DF-RHF iter   1:  -210.40919953291530   -2.10409e+02   7.51360e-02 
   @DF-RHF iter   2:  -139.72126708027383    7.06879e+01   8.12827e-02 DIIS
   @DF-RHF iter   3:  -226.09070512685668   -8.63694e+01   5.12471e-02 DIIS
   @DF-RHF iter   4:  -218.86320356230931    7.22750e+00   5.97125e-02 DIIS
   @DF-RHF iter   5:  -270.59326330832596   -5.17301e+01   9.56479e-03 DIIS
   @DF-RHF iter   6:  -271.05768322938013   -4.64420e-01   3.82789e-03 DIIS
   @DF-RHF iter   7:  -271.14516170548211   -8.74785e-02   1.33595e-03 DIIS
   @DF-RHF iter   8:  -271.15753147246994   -1.23698e-02   4.53975e-04 DIIS
   @DF-RHF iter   9:  -271.15951993931401   -1.98847e-03   1.33226e-04 DIIS
   @DF-RHF iter  10:  -271.15968365297795   -1.63714e-04   4.10980e-05 DIIS
   @DF-RHF iter  11:  -271.15970206139275   -1.84084e-05   9.89705e-06 DIIS
   @DF-RHF iter  12:  -271.15970301593154   -9.54539e-07   2.93521e-06 DIIS
   @DF-RHF iter  13:  -271.15970312660374   -1.10672e-07   8.67543e-07 DIIS

  ==> Post-Iterations <==

    Orbital Energies (a.u.)
    -----------------------

    Doubly Occupied:                                                      

       1A    -20.557353     2A    -11.272323     3A    -11.210828  
       4A    -11.205406     5A    -11.197262     6A    -11.187017  
       7A     -1.370457     8A     -1.070557     9A     -1.002086  
      10A     -0.913466    11A     -0.831164    12A     -0.767715  
      13A     -0.706431    14A     -0.647201    15A     -0.620042  
      16A     -0.596061    17A     -0.566015    18A     -0.537840  
      19A     -0.527159    20A     -0.519005    21A     -0.494153  
      22A     -0.468991    23A     -0.447259    24A     -0.438084  
      25A     -0.403350  

    Virtual:                                                              

      26A      0.209031    27A      0.256606    28A      0.271369  
      29A      0.276995    30A      0.305255    31A      0.312699  
      32A      0.321352    33A      0.333353    34A      0.348324  
      35A      0.363901    36A      0.375619    37A      0.391490  
      38A      0.399349    39A      0.436452    40A      0.447816  
      41A      0.462326    42A      0.487326    43A      0.708852  
      44A      0.727517    45A      0.745387    46A      0.766055  
      47A      0.775283    48A      0.805267    49A      0.838510  
      50A      0.893157    51A      0.924768    52A      0.945275  
      53A      0.977877    54A      0.994887    55A      1.022764  
      56A      1.081962    57A      1.127561    58A      1.142007  
      59A      1.147128    60A      1.162830    61A      1.179779  
      62A      1.188358    63A      1.203066    64A      1.214884  
      65A      1.233141    66A      1.239755    67A      1.261521  
      68A      1.264697    69A      1.289028    70A      1.309919  
      71A      1.346122    72A      1.445902    73A      1.490240  
      74A      1.494953    75A      1.666584    76A      1.691357  
      77A      1.712781    78A      1.769760    79A      1.848567  
      80A      1.873404    81A      1.921301    82A      2.021328  
      83A      2.076252    84A      2.101023    85A      2.162840  
      86A      2.209779    87A      2.218825    88A      2.288867  
      89A      2.303378    90A      2.356654    91A      2.417601  
      92A      2.430023    93A      2.453372    94A      2.489041  
      95A      2.577653    96A      2.618302    97A      2.674670  
      98A      2.689157    99A      2.716812   100A      2.774213  
     101A      2.811397   102A      2.820109   103A      2.884204  
     104A      2.969329   105A      3.009983   106A      3.052573  
     107A      3.107477   108A      3.223633   109A      4.250862  
     110A      4.595580   111A      4.665603   112A      4.804564  
     113A      4.940704   114A      4.982894  

    Final Occupation by Irrep:
              A 
    DOCC [    25 ]

  Energy converged.

  @DF-RHF Final Energy:  -271.15970312660374

   => Energetics <=

    Nuclear Repulsion Energy =            263.6197046321112794
    One-Electron Energy =                -890.4449852974951227
    Two-Electron Energy =                 355.6655775387803260
    DFT Exchange-Correlation Energy =       0.0000000000000000
    Empirical Dispersion Energy =           0.0000000000000000
    PCM Polarization Energy =               0.0000000000000000
    EFP Energy =                            0.0000000000000000
    Total Energy =                       -271.1597031266035174

    Alert: EFP and PCM quantities not currently incorporated into SCF psivars.

Properties will be evaluated at   0.000000,   0.000000,   0.000000 Bohr
  ==> Properties <==


Properties computed using the SCF density matrix

  Nuclear Dipole Moment: (a.u.)
     X:     3.2078      Y:     1.9910      Z:    -0.3177

  Electronic Dipole Moment: (a.u.)
     X:    -3.6711      Y:    -1.4399      Z:     0.1553

  Dipole Moment: (a.u.)
     X:    -0.4633      Y:     0.5511      Z:    -0.1625     Total:     0.7381

  Dipole Moment: (Debye)
     X:    -1.1775      Y:     1.4008      Z:    -0.4129     Total:     1.8760


  Saving occupied orbitals to File 180.

*** tstop() called on cx1-3-2-3.cx1.hpc.ic.ac.uk at Tue Jul  5 16:48:24 2016
Module time:
	user time   =       7.56 seconds =       0.13 minutes
	system time =       0.04 seconds =       0.00 minutes
	total time  =          8 seconds =       0.13 minutes
Total time:
	user time   =       7.56 seconds =       0.13 minutes
	system time =       0.04 seconds =       0.00 minutes
	total time  =          8 seconds =       0.13 minutes


Properties will be evaluated at   0.000000,   0.000000,   0.000000 Bohr

Properties computed using the  density matrix

  Nuclear Dipole Moment: (a.u.)
     X:     3.2078      Y:     1.9910      Z:    -0.3177

  Electronic Dipole Moment: (a.u.)
     X:    -3.6711      Y:    -1.4399      Z:     0.1553

  Dipole Moment: (a.u.)
     X:    -0.4633      Y:     0.5511      Z:    -0.1625     Total:     0.7381

  Dipole Moment: (Debye)
     X:    -1.1775      Y:     1.4008      Z:    -0.4129     Total:     1.8760

  Quadrupole Moment: (Debye Ang)
    XX:   -38.8397     YY:   -40.9170     ZZ:   -38.6937
    XY:    -3.1952     XZ:    -0.5541     YZ:     1.8028

  Traceless Quadrupole Moment: (Debye Ang)
    XX:     0.6437     YY:    -1.4335     ZZ:     0.7898
    XY:    -3.1952     XZ:    -0.5541     YZ:     1.8028

  Mulliken Charges: (a.u.)
   Center  Symbol    Alpha    Beta     Spin     Total
       1     H     0.27879  0.27879  0.00000  0.44241
       2     O     4.36831  4.36831  0.00000 -0.73662
       3     C     3.00025  3.00025  0.00000 -0.00051
       4     C     3.16716  3.16716  0.00000 -0.33431
       5     H     0.41805  0.41805  0.00000  0.16389
       6     H     0.42755  0.42755  0.00000  0.14490
       7     C     3.15375  3.15375  0.00000 -0.30750
       8     H     0.42276  0.42276  0.00000  0.15448
       9     H     0.42449  0.42449  0.00000  0.15103
      10     C     3.16322  3.16322  0.00000 -0.32645
      11     H     0.42237  0.42237  0.00000  0.15525
      12     H     0.42255  0.42255  0.00000  0.15491
      13     C     3.24020  3.24020  0.00000 -0.48040
      14     H     0.38510  0.38510  0.00000  0.22979
      15     H     0.42873  0.42873  0.00000  0.14254
      16     H     0.42905  0.42905  0.00000  0.14191
      17     H     0.42233  0.42233  0.00000  0.15535
      18     H     0.42534  0.42534  0.00000  0.14933

   Total alpha = 25.00000, Total beta = 25.00000, Total charge = -0.00000


*** PSI4 exiting successfully. Buy a developer a beer!
