    -----------------------------------------------------------------------
          Psi4: An Open-Source Ab Initio Electronic Structure Package
                              Psi4 (no tag) Driver

                          Git: Rev {detached?}  

    J. M. Turney, A. C. Simmonett, R. M. Parrish, E. G. Hohenstein,
    F. A. Evangelista, J. T. Fermann, B. J. Mintz, L. A. Burns, J. J. Wilke,
    M. L. Abrams, N. J. Russ, M. L. Leininger, C. L. Janssen, E. T. Seidl,
    W. D. Allen, H. F. Schaefer, R. A. King, E. F. Valeev, C. D. Sherrill,
    and T. D. Crawford, WIREs Comput. Mol. Sci. 2, 556-565 (2012)
    (doi: 10.1002/wcms.93)

                         Additional Contributions by
    A. E. DePrince, M. Saitow, U. Bozkaya, A. Yu. Sokolov
    -----------------------------------------------------------------------


    Psi4 started on: Tue Jul  5 16:21:37 2016

    Process ID:  19255
    PSI4DATADIR: /export131/home/mjharvey/miniconda3/share
    Memory level set to 256.000 MB

  ==> Input File <==

--------------------------------------------------------------------------
set {
	reference rhf
	basis 6-31G*
}


set_num_threads( 1 )
memory 2 gb

molecule MOL {
0 1

H	 -0.936867	 -1.098537	 -0.677771
N	 -1.172117	 -0.314371	 -0.100254
C	 -0.024542	 0.565565	 0.069209
H	 -1.920482	 0.169716	 -0.559260
C	 1.271298	 -0.229563	 -0.014192
H	 -0.049409	 1.297310	 -0.731596
H	 -0.046881	 1.125219	 1.006750
H	 1.332152	 -0.753033	 -0.961461
H	 2.134169	 0.422483	 0.080702
H	 1.326077	 -0.968298	 0.781395

	symmetry c1
}
ee = energy('scf')
oeprop('DIPOLE', 'QUADRUPOLE', 'MULLIKEN_CHARGES')
f=open( 'psi4out.xyz', 'w' )
f.write( "10  " )
f.write( str(ee) + "\n" )
f.write( MOL.save_string_xyz() )
f.close()
--------------------------------------------------------------------------

  Memory set to   2.000 GiB by Python script.

*** tstart() called on cx1-3-15-2.cx1.hpc.ic.ac.uk
*** at Tue Jul  5 16:21:37 2016


         ---------------------------------------------------------
                                   SCF
            by Justin Turney, Rob Parrish, and Andy Simmonett
                              RHF Reference
                        1 Threads,   2000 MiB Core
         ---------------------------------------------------------

  ==> Geometry <==

    Molecular point group: c1
    Full point group: C1

    Geometry (in Angstrom), charge = 0, multiplicity = 1:

       Center              X                  Y                   Z               Mass       
    ------------   -----------------  -----------------  -----------------  -----------------
           H         -0.945766187639    -1.094680810786    -0.637529278365     1.007825032070
           N         -1.181016187639    -0.310514810786    -0.060012278365    14.003074004780
           C         -0.033441187639     0.569421189214     0.109450721635    12.000000000000
           H         -1.929381187639     0.173572189214    -0.519018278365     1.007825032070
           C          1.262398812361    -0.225706810786     0.026049721635    12.000000000000
           H         -0.058308187639     1.301166189214    -0.691354278365     1.007825032070
           H         -0.055780187639     1.129075189214     1.046991721635     1.007825032070
           H          1.323252812361    -0.749176810786    -0.921219278365     1.007825032070
           H          2.125269812361     0.426339189214     0.120943721635     1.007825032070
           H          1.317177812361    -0.964441810786     0.821636721635     1.007825032070

  Running in c1 symmetry.

  Rotational constants: A =      1.08237  B =      0.30613  C =      0.26455 [cm^-1]
  Rotational constants: A =  32448.59167  B =   9177.60104  C =   7930.95587 [MHz]
  Nuclear repulsion =   83.532273453934408

  Charge       = 0
  Multiplicity = 1
  Electrons    = 26
  Nalpha       = 13
  Nbeta        = 13

  ==> Algorithm <==

  SCF Algorithm Type is DF.
  DIIS enabled.
  MOM disabled.
  Fractional occupation disabled.
  Guess Type is CORE.
  Energy threshold   = 1.00e-06
  Density threshold  = 1.00e-06
  Integral threshold = 0.00e+00

  ==> Primary Basis <==

  Basis Set: 6-31G*
    Number of shells: 32
    Number of basis function: 59
    Number of Cartesian functions: 59
    Spherical Harmonics?: false
    Max angular momentum: 2

  ==> Pre-Iterations <==

   -------------------------------------------------------
    Irrep   Nso     Nmo     Nalpha   Nbeta   Ndocc  Nsocc
   -------------------------------------------------------
     A         59      59       0       0       0       0
   -------------------------------------------------------
    Total      59      59      13      13      13       0
   -------------------------------------------------------

 OEINTS: Overlap, kinetic, potential, dipole, and quadrupole integrals
         stored in file 35.

  ==> Integral Setup <==

  ==> DFJK: Density-Fitted J/K Matrices <==

    J tasked:                  Yes
    K tasked:                  Yes
    wK tasked:                  No
    OpenMP threads:              1
    Integrals threads:           1
    Memory (MB):              1430
    Algorithm:                Core
    Integral Cache:           NONE
    Schwarz Cutoff:          1E-12
    Fitting Condition:       1E-12

   => Auxiliary Basis Set <=

  Basis Set: 
    Number of shells: 135
    Number of basis function: 418
    Number of Cartesian functions: 418
    Spherical Harmonics?: false
    Max angular momentum: 3

  Minimum eigenvalue in the overlap matrix is 5.6504767226E-03.
  Using Symmetric Orthogonalization.
  SCF Guess: Core (One-Electron) Hamiltonian.

  ==> Iterations <==

                           Total Energy        Delta E     RMS |[F,P]|

   @DF-RHF iter   1:  -108.79644536023503   -1.08796e+02   9.46421e-02 
   @DF-RHF iter   2:  -108.82258304596894   -2.61377e-02   6.41551e-02 DIIS
   @DF-RHF iter   3:  -117.27186421135673   -8.44928e+00   6.90920e-02 DIIS
   @DF-RHF iter   4:  -133.62459166474198   -1.63527e+01   1.78545e-02 DIIS
   @DF-RHF iter   5:  -134.14293208230643   -5.18340e-01   7.05880e-03 DIIS
   @DF-RHF iter   6:  -134.22898857623653   -8.60565e-02   2.26887e-03 DIIS
   @DF-RHF iter   7:  -134.24242201164083   -1.34334e-02   4.94531e-04 DIIS
   @DF-RHF iter   8:  -134.24321769055314   -7.95679e-04   1.26519e-04 DIIS
   @DF-RHF iter   9:  -134.24326904518679   -5.13546e-05   4.70218e-05 DIIS
   @DF-RHF iter  10:  -134.24327481862196   -5.77344e-06   1.00507e-05 DIIS
   @DF-RHF iter  11:  -134.24327512876042   -3.10138e-07   2.50670e-06 DIIS
   @DF-RHF iter  12:  -134.24327514546252   -1.67021e-08   3.68392e-07 DIIS

  ==> Post-Iterations <==

    Orbital Energies (a.u.)
    -----------------------

    Doubly Occupied:                                                      

       1A    -15.530215     2A    -11.242808     3A    -11.212736  
       4A     -1.176591     5A     -0.988897     6A     -0.828456  
       7A     -0.657548     8A     -0.625568     9A     -0.593815  
      10A     -0.521587    11A     -0.506630    12A     -0.494615  
      13A     -0.376759  

    Virtual:                                                              

      14A      0.226981    15A      0.271698    16A      0.284686  
      17A      0.317742    18A      0.325046    19A      0.330633  
      20A      0.364350    21A      0.417250    22A      0.445959  
      23A      0.726279    24A      0.751485    25A      0.774525  
      26A      0.817089    27A      0.902802    28A      0.941494  
      29A      1.001676    30A      1.083513    31A      1.128752  
      32A      1.145059    33A      1.170374    34A      1.177544  
      35A      1.212967    36A      1.238851    37A      1.258949  
      38A      1.273783    39A      1.295431    40A      1.525253  
      41A      1.689945    42A      1.747767    43A      1.875312  
      44A      2.077468    45A      2.214206    46A      2.249931  
      47A      2.299430    48A      2.408062    49A      2.501082  
      50A      2.527464    51A      2.625670    52A      2.719294  
      53A      2.754972    54A      2.857555    55A      2.979501  
      56A      3.088567    57A      4.210738    58A      4.621507  
      59A      4.849097  

    Final Occupation by Irrep:
              A 
    DOCC [    13 ]

  Energy converged.

  @DF-RHF Final Energy:  -134.24327514546252

   => Energetics <=

    Nuclear Repulsion Energy =             83.5322734539344083
    One-Electron Energy =                -346.0386215925317970
    Two-Electron Energy =                 128.2630729931348128
    DFT Exchange-Correlation Energy =       0.0000000000000000
    Empirical Dispersion Energy =           0.0000000000000000
    PCM Polarization Energy =               0.0000000000000000
    EFP Energy =                            0.0000000000000000
    Total Energy =                       -134.2432751454625759

    Alert: EFP and PCM quantities not currently incorporated into SCF psivars.

Properties will be evaluated at   0.000000,   0.000000,   0.000000 Bohr
  ==> Properties <==


Properties computed using the SCF density matrix

  Nuclear Dipole Moment: (a.u.)
     X:     1.6688      Y:     0.2089      Z:    -0.7306

  Electronic Dipole Moment: (a.u.)
     X:    -1.4805      Y:    -0.0278      Z:     0.1744

  Dipole Moment: (a.u.)
     X:     0.1883      Y:     0.1811      Z:    -0.5563     Total:     0.6146

  Dipole Moment: (Debye)
     X:     0.4786      Y:     0.4603      Z:    -1.4139     Total:     1.5621


  Saving occupied orbitals to File 180.

*** tstop() called on cx1-3-15-2.cx1.hpc.ic.ac.uk at Tue Jul  5 16:21:39 2016
Module time:
	user time   =       1.61 seconds =       0.03 minutes
	system time =       0.02 seconds =       0.00 minutes
	total time  =          2 seconds =       0.03 minutes
Total time:
	user time   =       1.61 seconds =       0.03 minutes
	system time =       0.02 seconds =       0.00 minutes
	total time  =          2 seconds =       0.03 minutes


Properties will be evaluated at   0.000000,   0.000000,   0.000000 Bohr

Properties computed using the  density matrix

  Nuclear Dipole Moment: (a.u.)
     X:     1.6688      Y:     0.2089      Z:    -0.7306

  Electronic Dipole Moment: (a.u.)
     X:    -1.4805      Y:    -0.0278      Z:     0.1744

  Dipole Moment: (a.u.)
     X:     0.1883      Y:     0.1811      Z:    -0.5563     Total:     0.6146

  Dipole Moment: (Debye)
     X:     0.4786      Y:     0.4603      Z:    -1.4139     Total:     1.5621

  Quadrupole Moment: (Debye Ang)
    XX:   -21.0456     YY:   -20.1957     ZZ:   -20.7158
    XY:    -1.0217     XZ:     2.7176     YZ:     1.2469

  Traceless Quadrupole Moment: (Debye Ang)
    XX:    -0.3933     YY:     0.4567     ZZ:    -0.0634
    XY:    -1.0217     XZ:     2.7176     YZ:     1.2469

  Mulliken Charges: (a.u.)
   Center  Symbol    Alpha    Beta     Spin     Total
       1     H     0.33365  0.33365  0.00000  0.33271
       2     N     3.92347  3.92347  0.00000 -0.84695
       3     C     3.05268  3.05268  0.00000 -0.10535
       4     H     0.33335  0.33335  0.00000  0.33331
       5     C     3.24959  3.24959  0.00000 -0.49918
       6     H     0.43283  0.43283  0.00000  0.13435
       7     H     0.41964  0.41964  0.00000  0.16072
       8     H     0.42423  0.42423  0.00000  0.15154
       9     H     0.41774  0.41774  0.00000  0.16452
      10     H     0.41283  0.41283  0.00000  0.17435

   Total alpha = 13.00000, Total beta = 13.00000, Total charge = -0.00000


*** PSI4 exiting successfully. Buy a developer a beer!
