    -----------------------------------------------------------------------
          Psi4: An Open-Source Ab Initio Electronic Structure Package
                              Psi4 (no tag) Driver

                          Git: Rev {detached?}  

    J. M. Turney, A. C. Simmonett, R. M. Parrish, E. G. Hohenstein,
    F. A. Evangelista, J. T. Fermann, B. J. Mintz, L. A. Burns, J. J. Wilke,
    M. L. Abrams, N. J. Russ, M. L. Leininger, C. L. Janssen, E. T. Seidl,
    W. D. Allen, H. F. Schaefer, R. A. King, E. F. Valeev, C. D. Sherrill,
    and T. D. Crawford, WIREs Comput. Mol. Sci. 2, 556-565 (2012)
    (doi: 10.1002/wcms.93)

                         Additional Contributions by
    A. E. DePrince, M. Saitow, U. Bozkaya, A. Yu. Sokolov
    -----------------------------------------------------------------------


    Psi4 started on: Tue Jul  5 16:22:35 2016

    Process ID:  23856
    PSI4DATADIR: /export131/home/mjharvey/miniconda3/share
    Memory level set to 256.000 MB

  ==> Input File <==

--------------------------------------------------------------------------
set {
	reference rhf
	basis 6-31G*
}


set_num_threads( 1 )
memory 2 gb

molecule MOL {
0 1

H	 2.451280	 0.470273	 0.581023
O	 1.555426	 0.604105	 0.854982
C	 0.702312	 0.627605	 -0.264544
C	 -0.714990	 0.596302	 0.266387
H	 0.872331	 -0.240444	 -0.895764
H	 0.862334	 1.525244	 -0.857974
O	 -1.405996	 -0.526611	 -0.195820
H	 -1.257453	 1.468809	 -0.075599
H	 -0.688972	 0.618407	 1.353696
H	 -0.890587	 -1.292708	 0.022039

	symmetry c1
}
set optking {
	frozen_dihedral = ("
		10 7 4 3
	")
}

ee = energy('scf')
oeprop('DIPOLE', 'QUADRUPOLE', 'MULLIKEN_CHARGES')
f=open( 'psi4out.xyz', 'w' )
f.write( "10  " )
f.write( str(ee) + "\n" )
f.write( MOL.save_string_xyz() )
f.close()
--------------------------------------------------------------------------

  Memory set to   2.000 GiB by Python script.

*** tstart() called on cx1-49-4-2.cx1.hpc.ic.ac.uk
*** at Tue Jul  5 16:22:35 2016


         ---------------------------------------------------------
                                   SCF
            by Justin Turney, Rob Parrish, and Andy Simmonett
                              RHF Reference
                        1 Threads,   2000 MiB Core
         ---------------------------------------------------------

  ==> Geometry <==

    Molecular point group: c1
    Full point group: C1

    Geometry (in Angstrom), charge = 0, multiplicity = 1:

       Center              X                  Y                   Z               Mass       
    ------------   -----------------  -----------------  -----------------  -----------------
           H          2.393290649673     0.172128485792     0.408645031932     1.007825032070
           O          1.497436649673     0.305960485792     0.682604031932    15.994914619560
           C          0.644322649673     0.329460485792    -0.436921968068    12.000000000000
           C         -0.772979350327     0.298157485792     0.094009031932    12.000000000000
           H          0.814341649673    -0.538588514208    -1.068141968068     1.007825032070
           H          0.804344649673     1.227099485792    -1.030351968068     1.007825032070
           O         -1.463985350327    -0.824755514208    -0.368197968068    15.994914619560
           H         -1.315442350327     1.170664485792    -0.247976968068     1.007825032070
           H         -0.746961350327     0.320262485792     1.181318031932     1.007825032070
           H         -0.948576350327    -1.590852514208    -0.150338968068     1.007825032070

  Running in c1 symmetry.

  Rotational constants: A =      0.74127  B =      0.14338  C =      0.14294 [cm^-1]
  Rotational constants: A =  22222.79920  B =   4298.47954  C =   4285.25584 [MHz]
  Nuclear repulsion =  132.510802009741269

  Charge       = 0
  Multiplicity = 1
  Electrons    = 34
  Nalpha       = 17
  Nbeta        = 17

  ==> Algorithm <==

  SCF Algorithm Type is DF.
  DIIS enabled.
  MOM disabled.
  Fractional occupation disabled.
  Guess Type is CORE.
  Energy threshold   = 1.00e-06
  Density threshold  = 1.00e-06
  Integral threshold = 0.00e+00

  ==> Primary Basis <==

  Basis Set: 6-31G*
    Number of shells: 36
    Number of basis function: 72
    Number of Cartesian functions: 72
    Spherical Harmonics?: false
    Max angular momentum: 2

  ==> Pre-Iterations <==

   -------------------------------------------------------
    Irrep   Nso     Nmo     Nalpha   Nbeta   Ndocc  Nsocc
   -------------------------------------------------------
     A         72      72       0       0       0       0
   -------------------------------------------------------
    Total      72      72      17      17      17       0
   -------------------------------------------------------

 OEINTS: Overlap, kinetic, potential, dipole, and quadrupole integrals
         stored in file 35.

  ==> Integral Setup <==

  ==> DFJK: Density-Fitted J/K Matrices <==

    J tasked:                  Yes
    K tasked:                  Yes
    wK tasked:                  No
    OpenMP threads:              1
    Integrals threads:           1
    Memory (MB):              1430
    Algorithm:                Core
    Integral Cache:           NONE
    Schwarz Cutoff:          1E-12
    Fitting Condition:       1E-12

   => Auxiliary Basis Set <=

  Basis Set: 
    Number of shells: 150
    Number of basis function: 474
    Number of Cartesian functions: 474
    Spherical Harmonics?: false
    Max angular momentum: 3

  Minimum eigenvalue in the overlap matrix is 4.4590215489E-03.
  Using Symmetric Orthogonalization.
  SCF Guess: Core (One-Electron) Hamiltonian.

  ==> Iterations <==

                           Total Energy        Delta E     RMS |[F,P]|

   @DF-RHF iter   1:  -201.81819242167848   -2.01818e+02   8.30588e-02 
   @DF-RHF iter   2:  -199.59417654723472    2.22402e+00   7.14326e-02 DIIS
   @DF-RHF iter   3:  -224.62134883209751   -2.50272e+01   3.58249e-02 DIIS
   @DF-RHF iter   4:  -228.38317780879476   -3.76183e+00   1.43787e-02 DIIS
   @DF-RHF iter   5:  -228.88165076518339   -4.98473e-01   3.64100e-03 DIIS
   @DF-RHF iter   6:  -228.91172436679119   -3.00736e-02   9.16790e-04 DIIS
   @DF-RHF iter   7:  -228.91395914566334   -2.23478e-03   3.32729e-04 DIIS
   @DF-RHF iter   8:  -228.91428608783349   -3.26942e-04   9.24952e-05 DIIS
   @DF-RHF iter   9:  -228.91431594508219   -2.98572e-05   2.97506e-05 DIIS
   @DF-RHF iter  10:  -228.91431924134042   -3.29626e-06   6.88462e-06 DIIS
   @DF-RHF iter  11:  -228.91431945358710   -2.12247e-07   1.94135e-06 DIIS
   @DF-RHF iter  12:  -228.91431946856005   -1.49730e-08   5.69577e-07 DIIS

  ==> Post-Iterations <==

    Orbital Energies (a.u.)
    -----------------------

    Doubly Occupied:                                                      

       1A    -20.563250     2A    -20.554994     3A    -11.274809  
       4A    -11.265823     5A     -1.376647     6A     -1.359076  
       7A     -0.999327     8A     -0.847855     9A     -0.726548  
      10A     -0.667167    11A     -0.656208    12A     -0.611553  
      13A     -0.573292    14A     -0.530295    15A     -0.483218  
      16A     -0.459582    17A     -0.429136  

    Virtual:                                                              

      18A      0.217251    19A      0.239194    20A      0.272875  
      21A      0.295101    22A      0.316669    23A      0.354987  
      24A      0.393157    25A      0.425616    26A      0.473376  
      27A      0.755042    28A      0.795135    29A      0.814424  
      30A      0.856330    31A      0.882205    32A      0.957613  
      33A      1.074411    34A      1.082192    35A      1.110284  
      36A      1.122555    37A      1.150661    38A      1.170198  
      39A      1.195043    40A      1.230472    41A      1.239747  
      42A      1.281930    43A      1.335870    44A      1.370515  
      45A      1.476602    46A      1.566099    47A      1.630118  
      48A      1.754203    49A      1.838322    50A      1.885818  
      51A      1.982083    52A      2.077944    53A      2.106568  
      54A      2.152466    55A      2.282162    56A      2.347531  
      57A      2.381306    58A      2.419848    59A      2.496468  
      60A      2.665879    61A      2.701598    62A      2.772058  
      63A      2.805411    64A      2.850734    65A      2.946682  
      66A      2.985264    67A      3.207790    68A      3.221781  
      69A      4.129215    70A      4.199109    71A      4.610180  
      72A      4.884308  

    Final Occupation by Irrep:
              A 
    DOCC [    17 ]

  Energy converged.

  @DF-RHF Final Energy:  -228.91431946856005

   => Energetics <=

    Nuclear Repulsion Energy =            132.5108020097412691
    One-Electron Energy =                -576.0927285968931528
    Two-Electron Energy =                 214.6676071185916612
    DFT Exchange-Correlation Energy =       0.0000000000000000
    Empirical Dispersion Energy =           0.0000000000000000
    PCM Polarization Energy =               0.0000000000000000
    EFP Energy =                            0.0000000000000000
    Total Energy =                       -228.9143194685602225

    Alert: EFP and PCM quantities not currently incorporated into SCF psivars.

Properties will be evaluated at   0.000000,   0.000000,   0.000000 Bohr
  ==> Properties <==


Properties computed using the SCF density matrix

  Nuclear Dipole Moment: (a.u.)
     X:     0.9386      Y:     0.7107      Z:    -0.8486

  Electronic Dipole Moment: (a.u.)
     X:    -0.0432      Y:    -0.7985      Z:     0.5364

  Dipole Moment: (a.u.)
     X:     0.8954      Y:    -0.0879      Z:    -0.3122     Total:     0.9523

  Dipole Moment: (Debye)
     X:     2.2758      Y:    -0.2233      Z:    -0.7935     Total:     2.4205


  Saving occupied orbitals to File 180.

*** tstop() called on cx1-49-4-2.cx1.hpc.ic.ac.uk at Tue Jul  5 16:22:38 2016
Module time:
	user time   =       2.30 seconds =       0.04 minutes
	system time =       0.01 seconds =       0.00 minutes
	total time  =          3 seconds =       0.05 minutes
Total time:
	user time   =       2.30 seconds =       0.04 minutes
	system time =       0.01 seconds =       0.00 minutes
	total time  =          3 seconds =       0.05 minutes


Properties will be evaluated at   0.000000,   0.000000,   0.000000 Bohr

Properties computed using the  density matrix

  Nuclear Dipole Moment: (a.u.)
     X:     0.9386      Y:     0.7107      Z:    -0.8486

  Electronic Dipole Moment: (a.u.)
     X:    -0.0432      Y:    -0.7985      Z:     0.5364

  Dipole Moment: (a.u.)
     X:     0.8954      Y:    -0.0879      Z:    -0.3122     Total:     0.9523

  Dipole Moment: (Debye)
     X:     2.2758      Y:    -0.2233      Z:    -0.7935     Total:     2.4205

  Quadrupole Moment: (Debye Ang)
    XX:   -24.9401     YY:   -22.2837     ZZ:   -26.8402
    XY:    -2.2418     XZ:    -3.3810     YZ:    -1.3856

  Traceless Quadrupole Moment: (Debye Ang)
    XX:    -0.2521     YY:     2.4043     ZZ:    -2.1522
    XY:    -2.2418     XZ:    -3.3810     YZ:    -1.3856

  Mulliken Charges: (a.u.)
   Center  Symbol    Alpha    Beta     Spin     Total
       1     H     0.28026  0.28026  0.00000  0.43947
       2     O     4.37308  4.37308  0.00000 -0.74616
       3     C     3.01913  3.01913  0.00000 -0.03826
       4     C     3.00228  3.00228  0.00000 -0.00457
       5     H     0.42452  0.42452  0.00000  0.15096
       6     H     0.42358  0.42358  0.00000  0.15284
       7     O     4.36997  4.36997  0.00000 -0.73994
       8     H     0.41483  0.41483  0.00000  0.17034
       9     H     0.41035  0.41035  0.00000  0.17929
      10     H     0.28199  0.28199  0.00000  0.43602

   Total alpha = 17.00000, Total beta = 17.00000, Total charge =  0.00000


*** PSI4 exiting successfully. Buy a developer a beer!
