    -----------------------------------------------------------------------
          Psi4: An Open-Source Ab Initio Electronic Structure Package
                              Psi4 (no tag) Driver

                          Git: Rev {detached?}  

    J. M. Turney, A. C. Simmonett, R. M. Parrish, E. G. Hohenstein,
    F. A. Evangelista, J. T. Fermann, B. J. Mintz, L. A. Burns, J. J. Wilke,
    M. L. Abrams, N. J. Russ, M. L. Leininger, C. L. Janssen, E. T. Seidl,
    W. D. Allen, H. F. Schaefer, R. A. King, E. F. Valeev, C. D. Sherrill,
    and T. D. Crawford, WIREs Comput. Mol. Sci. 2, 556-565 (2012)
    (doi: 10.1002/wcms.93)

                         Additional Contributions by
    A. E. DePrince, M. Saitow, U. Bozkaya, A. Yu. Sokolov
    -----------------------------------------------------------------------


    Psi4 started on: Tue Jul  5 16:30:03 2016

    Process ID:   6121
    PSI4DATADIR: /export131/home/mjharvey/miniconda3/share
    Memory level set to 256.000 MB

  ==> Input File <==

--------------------------------------------------------------------------
set {
	reference rhf
	basis 6-31G*
}


set_num_threads( 1 )
memory 2 gb

molecule MOL {
0 1

H	 1.178438	 -0.178911	 -1.714780
O	 1.309957	 0.660755	 -1.295833
C	 0.709265	 0.639550	 -0.033818
C	 -0.795902	 0.595680	 -0.067389
H	 1.036088	 1.541056	 0.471827
H	 1.077898	 -0.198910	 0.556198
C	 -1.522220	 -0.487727	 -0.255690
H	 -1.282245	 1.548446	 0.074703
H	 -1.071454	 -1.449856	 -0.418625
H	 -2.596511	 -0.445958	 -0.267127

	symmetry c1
}
set optking {
	frozen_dihedral = ("
		5 3 2 1,
		3 4 7 9
	")
}

ee = energy('scf')
oeprop('DIPOLE', 'QUADRUPOLE', 'MULLIKEN_CHARGES')
f=open( 'psi4out.xyz', 'w' )
f.write( "10  " )
f.write( str(ee) + "\n" )
f.write( MOL.save_string_xyz() )
f.close()
--------------------------------------------------------------------------

  Memory set to   2.000 GiB by Python script.

*** tstart() called on cx1-3-5-2.cx1.hpc.ic.ac.uk
*** at Tue Jul  5 16:30:03 2016


         ---------------------------------------------------------
                                   SCF
            by Justin Turney, Rob Parrish, and Andy Simmonett
                              RHF Reference
                        1 Threads,   2000 MiB Core
         ---------------------------------------------------------

  ==> Geometry <==

    Molecular point group: c1
    Full point group: C1

    Geometry (in Angstrom), charge = 0, multiplicity = 1:

       Center              X                  Y                   Z               Mass       
    ------------   -----------------  -----------------  -----------------  -----------------
           H          1.178858245945    -0.529709635792    -1.261357946119     1.007825032070
           O          1.310377245945     0.309956364208    -0.842410946119    15.994914619560
           C          0.709685245945     0.288751364208     0.419604053881    12.000000000000
           C         -0.795481754055     0.244881364208     0.386033053881    12.000000000000
           H          1.036508245945     1.190257364208     0.925249053881     1.007825032070
           H          1.078318245945    -0.549708635792     1.009620053881     1.007825032070
           C         -1.521799754055    -0.838525635792     0.197732053881    12.000000000000
           H         -1.281824754055     1.197647364208     0.528125053881     1.007825032070
           H         -1.071033754055    -1.800654635792     0.034797053881     1.007825032070
           H         -2.596090754055    -0.796756635792     0.186295053881     1.007825032070

  Running in c1 symmetry.

  Rotational constants: A =      0.69564  B =      0.16314  C =      0.14796 [cm^-1]
  Rotational constants: A =  20854.70432  B =   4890.94880  C =   4435.84815 [MHz]
  Nuclear repulsion =  118.064988316482527

  Charge       = 0
  Multiplicity = 1
  Electrons    = 32
  Nalpha       = 16
  Nbeta        = 16

  ==> Algorithm <==

  SCF Algorithm Type is DF.
  DIIS enabled.
  MOM disabled.
  Fractional occupation disabled.
  Guess Type is CORE.
  Energy threshold   = 1.00e-06
  Density threshold  = 1.00e-06
  Integral threshold = 0.00e+00

  ==> Primary Basis <==

  Basis Set: 6-31G*
    Number of shells: 36
    Number of basis function: 72
    Number of Cartesian functions: 72
    Spherical Harmonics?: false
    Max angular momentum: 2

  ==> Pre-Iterations <==

   -------------------------------------------------------
    Irrep   Nso     Nmo     Nalpha   Nbeta   Ndocc  Nsocc
   -------------------------------------------------------
     A         72      72       0       0       0       0
   -------------------------------------------------------
    Total      72      72      16      16      16       0
   -------------------------------------------------------

 OEINTS: Overlap, kinetic, potential, dipole, and quadrupole integrals
         stored in file 35.

  ==> Integral Setup <==

  ==> DFJK: Density-Fitted J/K Matrices <==

    J tasked:                  Yes
    K tasked:                  Yes
    wK tasked:                  No
    OpenMP threads:              1
    Integrals threads:           1
    Memory (MB):              1430
    Algorithm:                Core
    Integral Cache:           NONE
    Schwarz Cutoff:          1E-12
    Fitting Condition:       1E-12

   => Auxiliary Basis Set <=

  Basis Set: 
    Number of shells: 150
    Number of basis function: 474
    Number of Cartesian functions: 474
    Spherical Harmonics?: false
    Max angular momentum: 3

  Minimum eigenvalue in the overlap matrix is 4.9268119161E-03.
  Using Symmetric Orthogonalization.
  SCF Guess: Core (One-Electron) Hamiltonian.

  ==> Iterations <==

                           Total Energy        Delta E     RMS |[F,P]|

   @DF-RHF iter   1:  -158.00367684250961   -1.58004e+02   9.03112e-02 
   @DF-RHF iter   2:  -118.90539453184107    3.90983e+01   7.40918e-02 DIIS
   @DF-RHF iter   3:  -163.11749058022252   -4.42121e+01   6.93069e-02 DIIS
   @DF-RHF iter   4:  -184.85151275556086   -2.17340e+01   3.11179e-02 DIIS
   @DF-RHF iter   5:  -191.48381961278960   -6.63231e+00   1.28805e-02 DIIS
   @DF-RHF iter   6:  -191.87475774229677   -3.90938e-01   3.75238e-03 DIIS
   @DF-RHF iter   7:  -191.89750191878721   -2.27442e-02   2.04240e-03 DIIS
   @DF-RHF iter   8:  -191.90789607901013   -1.03942e-02   1.05193e-03 DIIS
   @DF-RHF iter   9:  -191.91192588301749   -4.02980e-03   2.27908e-04 DIIS
   @DF-RHF iter  10:  -191.91220020945673   -2.74326e-04   9.60423e-05 DIIS
   @DF-RHF iter  11:  -191.91226540322043   -6.51938e-05   4.59045e-05 DIIS
   @DF-RHF iter  12:  -191.91227481402382   -9.41080e-06   1.00942e-05 DIIS
   @DF-RHF iter  13:  -191.91227530609592   -4.92072e-07   1.28848e-06 DIIS
   @DF-RHF iter  14:  -191.91227531511316   -9.01724e-09   2.36595e-07 DIIS

  ==> Post-Iterations <==

    Orbital Energies (a.u.)
    -----------------------

    Doubly Occupied:                                                      

       1A    -20.556695     2A    -11.275305     3A    -11.231281  
       4A    -11.227757     5A     -1.365444     6A     -1.062711  
       7A     -0.924903     8A     -0.770602     9A     -0.702873  
      10A     -0.640160    11A     -0.619607    12A     -0.586561  
      13A     -0.529662    14A     -0.492843    15A     -0.436484  
      16A     -0.374475  

    Virtual:                                                              

      17A      0.166776    18A      0.229647    19A      0.259200  
      20A      0.298585    21A      0.301886    22A      0.335032  
      23A      0.355159    24A      0.444747    25A      0.466225  
      26A      0.529690    27A      0.688739    28A      0.738885  
      29A      0.780381    30A      0.815423    31A      0.832283  
      32A      0.903201    33A      0.909681    34A      0.987337  
      35A      1.032290    36A      1.083680    37A      1.123644  
      38A      1.161494    39A      1.164114    40A      1.182506  
      41A      1.215591    42A      1.252035    43A      1.281862  
      44A      1.354034    45A      1.425419    46A      1.465539  
      47A      1.567342    48A      1.691859    49A      1.754403  
      50A      1.814828    51A      1.943605    52A      1.983511  
      53A      2.029547    54A      2.172245    55A      2.251692  
      56A      2.282217    57A      2.358950    58A      2.457186  
      59A      2.539924    60A      2.552076    61A      2.630886  
      62A      2.728256    63A      2.809740    64A      2.842229  
      65A      2.953293    66A      3.131071    67A      3.204658  
      68A      3.262019    69A      4.169089    70A      4.549844  
      71A      4.663093    72A      4.858944  

    Final Occupation by Irrep:
              A 
    DOCC [    16 ]

  Energy converged.

  @DF-RHF Final Energy:  -191.91227531511316

   => Energetics <=

    Nuclear Repulsion Energy =            118.0649883164825269
    One-Electron Energy =                -494.3598043969736295
    Two-Electron Energy =                 184.3825407653781099
    DFT Exchange-Correlation Energy =       0.0000000000000000
    Empirical Dispersion Energy =           0.0000000000000000
    PCM Polarization Energy =               0.0000000000000000
    EFP Energy =                            0.0000000000000000
    Total Energy =                       -191.9122753151129928

    Alert: EFP and PCM quantities not currently incorporated into SCF psivars.

Properties will be evaluated at   0.000000,   0.000000,   0.000000 Bohr
  ==> Properties <==


Properties computed using the SCF density matrix

  Nuclear Dipole Moment: (a.u.)
     X:    -1.5455      Y:    -1.2068      Z:     1.3297

  Electronic Dipole Moment: (a.u.)
     X:     1.1851      Y:     0.6822      Z:    -1.0612

  Dipole Moment: (a.u.)
     X:    -0.3603      Y:    -0.5247      Z:     0.2685     Total:     0.6908

  Dipole Moment: (Debye)
     X:    -0.9159      Y:    -1.3335      Z:     0.6825     Total:     1.7558


  Saving occupied orbitals to File 180.

*** tstop() called on cx1-3-5-2.cx1.hpc.ic.ac.uk at Tue Jul  5 16:30:06 2016
Module time:
	user time   =       2.65 seconds =       0.04 minutes
	system time =       0.03 seconds =       0.00 minutes
	total time  =          3 seconds =       0.05 minutes
Total time:
	user time   =       2.65 seconds =       0.04 minutes
	system time =       0.03 seconds =       0.00 minutes
	total time  =          3 seconds =       0.05 minutes


Properties will be evaluated at   0.000000,   0.000000,   0.000000 Bohr

Properties computed using the  density matrix

  Nuclear Dipole Moment: (a.u.)
     X:    -1.5455      Y:    -1.2068      Z:     1.3297

  Electronic Dipole Moment: (a.u.)
     X:     1.1851      Y:     0.6822      Z:    -1.0612

  Dipole Moment: (a.u.)
     X:    -0.3603      Y:    -0.5247      Z:     0.2685     Total:     0.6908

  Dipole Moment: (Debye)
     X:    -0.9159      Y:    -1.3335      Z:     0.6825     Total:     1.7558

  Quadrupole Moment: (Debye Ang)
    XX:   -26.3538     YY:   -23.0688     ZZ:   -26.0189
    XY:    -2.0003     XZ:     1.2292     YZ:     3.1371

  Traceless Quadrupole Moment: (Debye Ang)
    XX:    -1.2067     YY:     2.0784     ZZ:    -0.8717
    XY:    -2.0003     XZ:     1.2292     YZ:     3.1371

  Mulliken Charges: (a.u.)
   Center  Symbol    Alpha    Beta     Spin     Total
       1     H     0.28230  0.28230  0.00000  0.43540
       2     O     4.36205  4.36205  0.00000 -0.72410
       3     C     3.01148  3.01148  0.00000 -0.02296
       4     C     3.08182  3.08182  0.00000 -0.16364
       5     H     0.41274  0.41274  0.00000  0.17452
       6     H     0.42549  0.42549  0.00000  0.14902
       7     C     3.19486  3.19486  0.00000 -0.38972
       8     H     0.40613  0.40613  0.00000  0.18773
       9     H     0.41584  0.41584  0.00000  0.16833
      10     H     0.40729  0.40729  0.00000  0.18542

   Total alpha = 16.00000, Total beta = 16.00000, Total charge = -0.00000


*** PSI4 exiting successfully. Buy a developer a beer!
