    -----------------------------------------------------------------------
          Psi4: An Open-Source Ab Initio Electronic Structure Package
                              Psi4 (no tag) Driver

                          Git: Rev {detached?}  

    J. M. Turney, A. C. Simmonett, R. M. Parrish, E. G. Hohenstein,
    F. A. Evangelista, J. T. Fermann, B. J. Mintz, L. A. Burns, J. J. Wilke,
    M. L. Abrams, N. J. Russ, M. L. Leininger, C. L. Janssen, E. T. Seidl,
    W. D. Allen, H. F. Schaefer, R. A. King, E. F. Valeev, C. D. Sherrill,
    and T. D. Crawford, WIREs Comput. Mol. Sci. 2, 556-565 (2012)
    (doi: 10.1002/wcms.93)

                         Additional Contributions by
    A. E. DePrince, M. Saitow, U. Bozkaya, A. Yu. Sokolov
    -----------------------------------------------------------------------


    Psi4 started on: Tue Jul  5 16:48:49 2016

    Process ID:  13978
    PSI4DATADIR: /export131/home/mjharvey/miniconda3/share
    Memory level set to 256.000 MB

  ==> Input File <==

--------------------------------------------------------------------------
set {
	reference rhf
	basis 6-31G*
}


set_num_threads( 1 )
memory 2 gb

molecule MOL {
0 1

H	 -2.153054	 -2.250733	 0.000000
O	 -2.462445	 -1.355403	 0.000000
C	 -1.434260	 -0.483044	 0.000000
C	 -0.433773	 -0.676090	 0.946821
C	 -1.349365	 0.569745	 -0.891257
H	 -0.521043	 -1.500747	 1.628933
C	 0.643672	 0.184268	 0.995707
H	 -2.116001	 0.730234	 -1.628189
C	 -0.255517	 1.429432	 -0.829114
H	 1.412366	 0.028304	 1.730114
C	 0.746368	 1.247093	 0.109055
C	 -0.174007	 2.528488	 -1.765025
H	 1.583208	 1.917920	 0.144665
N	 -0.112206	 3.391405	 -2.501543

	symmetry c1
}
set optking {
	frozen_dihedral = ("
		14 12 9 5
	")
}

ee = energy('scf')
oeprop('DIPOLE', 'QUADRUPOLE', 'MULLIKEN_CHARGES')
f=open( 'psi4out.xyz', 'w' )
f.write( "14  " )
f.write( str(ee) + "\n" )
f.write( MOL.save_string_xyz() )
f.close()
--------------------------------------------------------------------------

  Memory set to   2.000 GiB by Python script.

*** tstart() called on cx1-3-4-4.cx1.hpc.ic.ac.uk
*** at Tue Jul  5 16:48:49 2016


         ---------------------------------------------------------
                                   SCF
            by Justin Turney, Rob Parrish, and Andy Simmonett
                              RHF Reference
                        1 Threads,   2000 MiB Core
         ---------------------------------------------------------

  ==> Geometry <==

    Molecular point group: c1
    Full point group: C1

    Geometry (in Angstrom), charge = 0, multiplicity = 1:

       Center              X                  Y                   Z               Mass       
    ------------   -----------------  -----------------  -----------------  -----------------
           H         -1.566270815838    -2.942330832272     0.422934050792     1.007825032070
           O         -1.875661815838    -2.047000832272     0.422934050792    15.994914619560
           C         -0.847476815838    -1.174641832272     0.422934050792    12.000000000000
           C          0.153010184162    -1.367687832272     1.369755050792    12.000000000000
           C         -0.762581815838    -0.121852832272    -0.468322949208    12.000000000000
           H          0.065740184162    -2.192344832272     2.051867050792     1.007825032070
           C          1.230455184162    -0.507329832272     1.418641050792    12.000000000000
           H         -1.529217815838     0.038636167728    -1.205254949208     1.007825032070
           C          0.331266184162     0.737834167728    -0.406179949208    12.000000000000
           H          1.999149184162    -0.663293832272     2.153048050792     1.007825032070
           C          1.333151184162     0.555495167728     0.531989050792    12.000000000000
           C          0.412776184162     1.836890167728    -1.342090949208    12.000000000000
           H          2.169991184162     1.226322167728     0.567599050792     1.007825032070
           N          0.474577184162     2.699807167728    -2.078608949208    14.003074004780

  Running in c1 symmetry.

  Rotational constants: A =      0.11807  B =      0.04016  C =      0.03002 [cm^-1]
  Rotational constants: A =   3539.61824  B =   1204.05941  C =    899.85439 [MHz]
  Nuclear repulsion =  379.273578095909841

  Charge       = 0
  Multiplicity = 1
  Electrons    = 62
  Nalpha       = 31
  Nbeta        = 31

  ==> Algorithm <==

  SCF Algorithm Type is DF.
  DIIS enabled.
  MOM disabled.
  Fractional occupation disabled.
  Guess Type is CORE.
  Energy threshold   = 1.00e-06
  Density threshold  = 1.00e-06
  Integral threshold = 0.00e+00

  ==> Primary Basis <==

  Basis Set: 6-31G*
    Number of shells: 64
    Number of basis function: 145
    Number of Cartesian functions: 145
    Spherical Harmonics?: false
    Max angular momentum: 2

  ==> Pre-Iterations <==

   -------------------------------------------------------
    Irrep   Nso     Nmo     Nalpha   Nbeta   Ndocc  Nsocc
   -------------------------------------------------------
     A        145     145       0       0       0       0
   -------------------------------------------------------
    Total     145     145      31      31      31       0
   -------------------------------------------------------

 OEINTS: Overlap, kinetic, potential, dipole, and quadrupole integrals
         stored in file 35.

  ==> Integral Setup <==

  ==> DFJK: Density-Fitted J/K Matrices <==

    J tasked:                  Yes
    K tasked:                  Yes
    wK tasked:                  No
    OpenMP threads:              1
    Integrals threads:           1
    Memory (MB):              1430
    Algorithm:                Core
    Integral Cache:           NONE
    Schwarz Cutoff:          1E-12
    Fitting Condition:       1E-12

   => Auxiliary Basis Set <=

  Basis Set: 
    Number of shells: 261
    Number of basis function: 854
    Number of Cartesian functions: 854
    Spherical Harmonics?: false
    Max angular momentum: 3

  Minimum eigenvalue in the overlap matrix is 4.1724691808E-04.
  Using Symmetric Orthogonalization.
  SCF Guess: Core (One-Electron) Hamiltonian.

  ==> Iterations <==

                           Total Energy        Delta E     RMS |[F,P]|

   @DF-RHF iter   1:  -309.77186313263263   -3.09772e+02   6.48871e-02 
   @DF-RHF iter   2:  -147.89455670812396    1.61877e+02   7.75345e-02 DIIS
   @DF-RHF iter   3:  -321.32722944063681   -1.73433e+02   5.35088e-02 DIIS
   @DF-RHF iter   4:  -342.42347795566349   -2.10962e+01   5.25848e-02 DIIS
   @DF-RHF iter   5:  -389.02614203146373   -4.66027e+01   2.36029e-02 DIIS
   @DF-RHF iter   6:  -389.30778034253825   -2.81638e-01   2.01120e-02 DIIS
   @DF-RHF iter   7:  -396.85333423692333   -7.54555e+00   6.87428e-03 DIIS
   @DF-RHF iter   8:  -397.19473827034466   -3.41404e-01   2.45439e-03 DIIS
   @DF-RHF iter   9:  -397.26302165799251   -6.82834e-02   1.28652e-03 DIIS
   @DF-RHF iter  10:  -397.28236341678934   -1.93418e-02   5.65773e-04 DIIS
   @DF-RHF iter  11:  -397.28693732649953   -4.57391e-03   1.50413e-04 DIIS
   @DF-RHF iter  12:  -397.28730957442991   -3.72248e-04   4.67197e-05 DIIS
   @DF-RHF iter  13:  -397.28734478841938   -3.52140e-05   2.04049e-05 DIIS
   @DF-RHF iter  14:  -397.28735283069335   -8.04227e-06   9.20333e-06 DIIS
   @DF-RHF iter  15:  -397.28735565704034   -2.82635e-06   3.50013e-06 DIIS
   @DF-RHF iter  16:  -397.28735626448832   -6.07448e-07   1.58412e-06 DIIS
   @DF-RHF iter  17:  -397.28735644039142   -1.75903e-07   7.20570e-07 DIIS

  ==> Post-Iterations <==

    Orbital Energies (a.u.)
    -----------------------

    Doubly Occupied:                                                      

       1A    -20.603725     2A    -15.574373     3A    -11.321186  
       4A    -11.293517     5A    -11.275677     6A    -11.263296  
       7A    -11.262385     8A    -11.262056     9A    -11.257339  
      10A     -1.427480    11A     -1.232205    12A     -1.182012  
      13A     -1.062542    14A     -1.038899    15A     -0.894512  
      16A     -0.860010    17A     -0.789573    18A     -0.714223  
      19A     -0.688996    20A     -0.684142    21A     -0.632635  
      22A     -0.620465    23A     -0.571705    24A     -0.564649  
      25A     -0.546538    26A     -0.541785    27A     -0.507134  
      28A     -0.475244    29A     -0.471533    30A     -0.362435  
      31A     -0.344348  

    Virtual:                                                              

      32A      0.085465    33A      0.128307    34A      0.207831  
      35A      0.221097    36A      0.222053    37A      0.274430  
      38A      0.279755    39A      0.290961    40A      0.326282  
      41A      0.367491    42A      0.378019    43A      0.440993  
      44A      0.449020    45A      0.469332    46A      0.484882  
      47A      0.576548    48A      0.602624    49A      0.634916  
      50A      0.704177    51A      0.713318    52A      0.717558  
      53A      0.760211    54A      0.784252    55A      0.794708  
      56A      0.803132    57A      0.804375    58A      0.826421  
      59A      0.853864    60A      0.861123    61A      0.871370  
      62A      0.890031    63A      0.896376    64A      0.937137  
      65A      0.954887    66A      0.994422    67A      1.032010  
      68A      1.063485    69A      1.071480    70A      1.093343  
      71A      1.103775    72A      1.111424    73A      1.126291  
      74A      1.134625    75A      1.161308    76A      1.180327  
      77A      1.211197    78A      1.252982    79A      1.265825  
      80A      1.337998    81A      1.378421    82A      1.382741  
      83A      1.420971    84A      1.444266    85A      1.465679  
      86A      1.476690    87A      1.522151    88A      1.590796  
      89A      1.600231    90A      1.667043    91A      1.686769  
      92A      1.715077    93A      1.733848    94A      1.742451  
      95A      1.800223    96A      1.807261    97A      1.841830  
      98A      1.946923    99A      2.044486   100A      2.063687  
     101A      2.084727   102A      2.108539   103A      2.128934  
     104A      2.166464   105A      2.231671   106A      2.242974  
     107A      2.257702   108A      2.283970   109A      2.293037  
     110A      2.298559   111A      2.330828   112A      2.390106  
     113A      2.433573   114A      2.441225   115A      2.474258  
     116A      2.521995   117A      2.552248   118A      2.610339  
     119A      2.623059   120A      2.752011   121A      2.835600  
     122A      2.855208   123A      2.873745   124A      2.911100  
     125A      2.997756   126A      3.012706   127A      3.032573  
     128A      3.096121   129A      3.143166   130A      3.169088  
     131A      3.207437   132A      3.290873   133A      3.380287  
     134A      3.564999   135A      3.673950   136A      3.868809  
     137A      4.319887   138A      4.465426   139A      4.507251  
     140A      4.559983   141A      4.613357   142A      4.720387  
     143A      4.828901   144A      4.970818   145A      5.257463  

    Final Occupation by Irrep:
              A 
    DOCC [    31 ]

  Energy converged.

  @DF-RHF Final Energy:  -397.28735644039142

   => Energetics <=

    Nuclear Repulsion Energy =            379.2735780959098406
    One-Electron Energy =               -1290.4687004650272684
    Two-Electron Energy =                 513.9077659287254392
    DFT Exchange-Correlation Energy =       0.0000000000000000
    Empirical Dispersion Energy =           0.0000000000000000
    PCM Polarization Energy =               0.0000000000000000
    EFP Energy =                            0.0000000000000000
    Total Energy =                       -397.2873564403919318

    Alert: EFP and PCM quantities not currently incorporated into SCF psivars.

Properties will be evaluated at   0.000000,   0.000000,   0.000000 Bohr
  ==> Properties <==


Properties computed using the SCF density matrix

  Nuclear Dipole Moment: (a.u.)
     X:     1.0578      Y:    -4.2672      Z:     3.7488

  Electronic Dipole Moment: (a.u.)
     X:    -0.6491      Y:     2.4660      Z:    -2.5628

  Dipole Moment: (a.u.)
     X:     0.4087      Y:    -1.8012      Z:     1.1860     Total:     2.1950

  Dipole Moment: (Debye)
     X:     1.0387      Y:    -4.5782      Z:     3.0144     Total:     5.5790


  Saving occupied orbitals to File 180.

*** tstop() called on cx1-3-4-4.cx1.hpc.ic.ac.uk at Tue Jul  5 16:49:05 2016
Module time:
	user time   =      15.49 seconds =       0.26 minutes
	system time =       0.09 seconds =       0.00 minutes
	total time  =         16 seconds =       0.27 minutes
Total time:
	user time   =      15.49 seconds =       0.26 minutes
	system time =       0.09 seconds =       0.00 minutes
	total time  =         16 seconds =       0.27 minutes


Properties will be evaluated at   0.000000,   0.000000,   0.000000 Bohr

Properties computed using the  density matrix

  Nuclear Dipole Moment: (a.u.)
     X:     1.0578      Y:    -4.2672      Z:     3.7488

  Electronic Dipole Moment: (a.u.)
     X:    -0.6491      Y:     2.4660      Z:    -2.5628

  Dipole Moment: (a.u.)
     X:     0.4087      Y:    -1.8012      Z:     1.1860     Total:     2.1950

  Dipole Moment: (Debye)
     X:     1.0387      Y:    -4.5782      Z:     3.0144     Total:     5.5790

  Quadrupole Moment: (Debye Ang)
    XX:   -51.8679     YY:   -53.0539     ZZ:   -55.7089
    XY:    -0.4495     XZ:     5.2358     YZ:     5.4142

  Traceless Quadrupole Moment: (Debye Ang)
    XX:     1.6757     YY:     0.4897     ZZ:    -2.1653
    XY:    -0.4495     XZ:     5.2358     YZ:     5.4142

  Mulliken Charges: (a.u.)
   Center  Symbol    Alpha    Beta     Spin     Total
       1     H     0.26755  0.26755  0.00000  0.46491
       2     O     4.38202  4.38202  0.00000 -0.76405
       3     C     2.80051  2.80051  0.00000  0.39899
       4     C     3.12424  3.12424  0.00000 -0.24849
       5     C     3.11148  3.11148  0.00000 -0.22297
       6     H     0.39139  0.39139  0.00000  0.21723
       7     C     3.09819  3.09819  0.00000 -0.19639
       8     H     0.37437  0.37437  0.00000  0.25125
       9     C     2.99472  2.99472  0.00000  0.01056
      10     H     0.38968  0.38968  0.00000  0.22064
      11     C     3.09504  3.09504  0.00000 -0.19009
      12     C     2.86555  2.86555  0.00000  0.26891
      13     H     0.38047  0.38047  0.00000  0.23907
      14     N     3.72478  3.72478  0.00000 -0.44956

   Total alpha = 31.00000, Total beta = 31.00000, Total charge = -0.00000


*** PSI4 exiting successfully. Buy a developer a beer!
