    -----------------------------------------------------------------------
          Psi4: An Open-Source Ab Initio Electronic Structure Package
                              Psi4 (no tag) Driver

                          Git: Rev {detached?}  

    J. M. Turney, A. C. Simmonett, R. M. Parrish, E. G. Hohenstein,
    F. A. Evangelista, J. T. Fermann, B. J. Mintz, L. A. Burns, J. J. Wilke,
    M. L. Abrams, N. J. Russ, M. L. Leininger, C. L. Janssen, E. T. Seidl,
    W. D. Allen, H. F. Schaefer, R. A. King, E. F. Valeev, C. D. Sherrill,
    and T. D. Crawford, WIREs Comput. Mol. Sci. 2, 556-565 (2012)
    (doi: 10.1002/wcms.93)

                         Additional Contributions by
    A. E. DePrince, M. Saitow, U. Bozkaya, A. Yu. Sokolov
    -----------------------------------------------------------------------


    Psi4 started on: Tue Jul  5 16:46:54 2016

    Process ID:    814
    PSI4DATADIR: /export131/home/mjharvey/miniconda3/share
    Memory level set to 256.000 MB

  ==> Input File <==

--------------------------------------------------------------------------
set {
	reference rhf
	basis 6-31G*
}


set_num_threads( 1 )
memory 2 gb

molecule MOL {
0 1

H	 1.367966	 0.069849	 -1.630278
C	 0.778805	 -0.484033	 -0.928144
C	 0.773667	 -1.867295	 -0.922020
C	 0.000000	 0.183220	 0.000000
H	 1.371642	 -2.404452	 -1.634659
C	 0.000000	 -2.555744	 0.000000
N	 0.000000	 1.642018	 0.000000
C	 -0.778805	 -0.484034	 0.928144
H	 0.000000	 -3.630640	 0.000000
C	 -0.773667	 -1.867295	 0.922020
O	 1.057097	 2.196749	 0.000000
O	 -1.057097	 2.196749	 0.000000
H	 -1.367966	 0.069849	 1.630278
H	 -1.371642	 -2.404452	 1.634659

	symmetry c1
}
ee = energy('scf')
oeprop('DIPOLE', 'QUADRUPOLE', 'MULLIKEN_CHARGES')
f=open( 'psi4out.xyz', 'w' )
f.write( "14  " )
f.write( str(ee) + "\n" )
f.write( MOL.save_string_xyz() )
f.close()
--------------------------------------------------------------------------

  Memory set to   2.000 GiB by Python script.

*** tstart() called on cx1-3-5-3.cx1.hpc.ic.ac.uk
*** at Tue Jul  5 16:46:55 2016


         ---------------------------------------------------------
                                   SCF
            by Justin Turney, Rob Parrish, and Andy Simmonett
                              RHF Reference
                        1 Threads,   2000 MiB Core
         ---------------------------------------------------------

  ==> Geometry <==

    Molecular point group: c1
    Full point group: C1

    Geometry (in Angstrom), charge = 0, multiplicity = 1:

       Center              X                  Y                   Z               Mass       
    ------------   -----------------  -----------------  -----------------  -----------------
           H          1.367966000000     0.069849321857    -1.630278000000     1.007825032070
           C          0.778805000000    -0.484032678143    -0.928144000000    12.000000000000
           C          0.773667000000    -1.867294678143    -0.922020000000    12.000000000000
           C         -0.000000000000     0.183220321857    -0.000000000000    12.000000000000
           H          1.371642000000    -2.404451678143    -1.634659000000     1.007825032070
           C         -0.000000000000    -2.555743678143    -0.000000000000    12.000000000000
           N         -0.000000000000     1.642018321857    -0.000000000000    14.003074004780
           C         -0.778805000000    -0.484033678143     0.928144000000    12.000000000000
           H         -0.000000000000    -3.630639678143    -0.000000000000     1.007825032070
           C         -0.773667000000    -1.867294678143     0.922020000000    12.000000000000
           O          1.057097000000     2.196749321857    -0.000000000000    15.994914619560
           O         -1.057097000000     2.196749321857    -0.000000000000    15.994914619560
           H         -1.367966000000     0.069849321857     1.630278000000     1.007825032070
           H         -1.371642000000    -2.404451678143     1.634659000000     1.007825032070

  Running in c1 symmetry.

  Rotational constants: A =      0.13589  B =      0.04188  C =      0.03427 [cm^-1]
  Rotational constants: A =   4073.84045  B =   1255.50648  C =   1027.48662 [MHz]
  Nuclear repulsion =  416.256136106214853

  Charge       = 0
  Multiplicity = 1
  Electrons    = 64
  Nalpha       = 32
  Nbeta        = 32

  ==> Algorithm <==

  SCF Algorithm Type is DF.
  DIIS enabled.
  MOM disabled.
  Fractional occupation disabled.
  Guess Type is CORE.
  Energy threshold   = 1.00e-06
  Density threshold  = 1.00e-06
  Integral threshold = 0.00e+00

  ==> Primary Basis <==

  Basis Set: 6-31G*
    Number of shells: 64
    Number of basis function: 145
    Number of Cartesian functions: 145
    Spherical Harmonics?: false
    Max angular momentum: 2

  ==> Pre-Iterations <==

   -------------------------------------------------------
    Irrep   Nso     Nmo     Nalpha   Nbeta   Ndocc  Nsocc
   -------------------------------------------------------
     A        145     145       0       0       0       0
   -------------------------------------------------------
    Total     145     145      32      32      32       0
   -------------------------------------------------------

 OEINTS: Overlap, kinetic, potential, dipole, and quadrupole integrals
         stored in file 35.

  ==> Integral Setup <==

  ==> DFJK: Density-Fitted J/K Matrices <==

    J tasked:                  Yes
    K tasked:                  Yes
    wK tasked:                  No
    OpenMP threads:              1
    Integrals threads:           1
    Memory (MB):              1430
    Algorithm:                Core
    Integral Cache:           NONE
    Schwarz Cutoff:          1E-12
    Fitting Condition:       1E-12

   => Auxiliary Basis Set <=

  Basis Set: 
    Number of shells: 261
    Number of basis function: 854
    Number of Cartesian functions: 854
    Spherical Harmonics?: false
    Max angular momentum: 3

  Minimum eigenvalue in the overlap matrix is 4.3678544949E-04.
  Using Symmetric Orthogonalization.
  SCF Guess: Core (One-Electron) Hamiltonian.

  ==> Iterations <==

                           Total Energy        Delta E     RMS |[F,P]|

   @DF-RHF iter   1:  -353.42426795029496   -3.53424e+02   6.29065e-02 
   @DF-RHF iter   2:  -225.84916243011435    1.27575e+02   7.59473e-02 DIIS
   @DF-RHF iter   3:  -390.49154886683698   -1.64642e+02   3.69538e-02 DIIS
   @DF-RHF iter   4:  -332.33111759732469    5.81604e+01   6.77421e-02 DIIS
   @DF-RHF iter   5:  -404.02539605135382   -7.16943e+01   3.89258e-02 DIIS
   @DF-RHF iter   6:  -430.72322438088838   -2.66978e+01   1.41898e-02 DIIS
   @DF-RHF iter   7:  -432.20562254258482   -1.48240e+00   9.08141e-03 DIIS
   @DF-RHF iter   8:  -433.92580181406015   -1.72018e+00   4.86444e-03 DIIS
   @DF-RHF iter   9:  -434.13754421540159   -2.11742e-01   1.36345e-03 DIIS
   @DF-RHF iter  10:  -434.16149447380508   -2.39503e-02   5.94810e-04 DIIS
   @DF-RHF iter  11:  -434.16642129799141   -4.92682e-03   3.17154e-04 DIIS
   @DF-RHF iter  12:  -434.16817792637698   -1.75663e-03   9.13494e-05 DIIS
   @DF-RHF iter  13:  -434.16842816727467   -2.50241e-04   3.06994e-05 DIIS
   @DF-RHF iter  14:  -434.16846617357271   -3.80063e-05   1.28341e-05 DIIS
   @DF-RHF iter  15:  -434.16847247030296   -6.29673e-06   6.84761e-06 DIIS
   @DF-RHF iter  16:  -434.16847380227716   -1.33197e-06   2.10908e-06 DIIS
   @DF-RHF iter  17:  -434.16847399253118   -1.90254e-07   8.29512e-07 DIIS

  ==> Post-Iterations <==

    Orbital Energies (a.u.)
    -----------------------

    Doubly Occupied:                                                      

       1A    -20.604107     2A    -20.604050     3A    -15.855388  
       4A    -11.308476     5A    -11.272121     6A    -11.272087  
       7A    -11.265592     8A    -11.262978     9A    -11.262687  
      10A     -1.635761    11A     -1.417955    12A     -1.202537  
      13A     -1.095487    14A     -1.054316    15A     -0.958353  
      16A     -0.869595    17A     -0.826563    18A     -0.781281  
      19A     -0.732922    20A     -0.728983    21A     -0.714672  
      22A     -0.649781    23A     -0.649751    24A     -0.624729  
      25A     -0.558135    26A     -0.542979    27A     -0.531295  
      28A     -0.491001    29A     -0.487017    30A     -0.449967  
      31A     -0.370104    32A     -0.367045  

    Virtual:                                                              

      33A      0.080311    34A      0.115170    35A      0.151856  
      36A      0.215144    37A      0.272811    38A      0.284020  
      39A      0.311337    40A      0.318067    41A      0.338037  
      42A      0.379017    43A      0.420335    44A      0.449636  
      45A      0.490479    46A      0.495217    47A      0.543166  
      48A      0.590334    49A      0.664816    50A      0.690553  
      51A      0.716770    52A      0.718825    53A      0.777055  
      54A      0.781565    55A      0.795580    56A      0.796845  
      57A      0.805257    58A      0.808637    59A      0.825418  
      60A      0.850061    61A      0.875428    62A      0.887557  
      63A      0.929133    64A      0.971183    65A      0.978228  
      66A      1.038765    67A      1.047883    68A      1.082795  
      69A      1.087801    70A      1.096158    71A      1.098404  
      72A      1.115990    73A      1.147387    74A      1.154689  
      75A      1.184114    76A      1.196849    77A      1.234484  
      78A      1.266559    79A      1.300295    80A      1.305662  
      81A      1.322888    82A      1.336030    83A      1.352691  
      84A      1.390744    85A      1.418546    86A      1.428224  
      87A      1.487086    88A      1.629439    89A      1.652029  
      90A      1.672559    91A      1.677048    92A      1.734189  
      93A      1.740223    94A      1.745501    95A      1.755999  
      96A      1.794706    97A      1.908709    98A      1.971278  
      99A      2.014020   100A      2.071352   101A      2.084113  
     102A      2.110763   103A      2.167507   104A      2.174027  
     105A      2.208248   106A      2.242816   107A      2.285928  
     108A      2.290549   109A      2.363882   110A      2.379791  
     111A      2.396226   112A      2.418187   113A      2.444080  
     114A      2.449932   115A      2.450373   116A      2.504474  
     117A      2.604151   118A      2.609903   119A      2.616538  
     120A      2.744704   121A      2.778609   122A      2.854879  
     123A      2.904130   124A      2.980982   125A      3.013901  
     126A      3.041964   127A      3.057160   128A      3.093171  
     129A      3.109635   130A      3.119181   131A      3.218041  
     132A      3.268430   133A      3.293894   134A      3.481318  
     135A      3.518084   136A      3.813757   137A      4.152959  
     138A      4.258014   139A      4.299909   140A      4.497363  
     141A      4.523813   142A      4.541732   143A      4.738816  
     144A      4.778302   145A      5.105992  

    Final Occupation by Irrep:
              A 
    DOCC [    32 ]

  Energy converged.

  @DF-RHF Final Energy:  -434.16847399253118

   => Energetics <=

    Nuclear Repulsion Energy =            416.2561361062148535
    One-Electron Energy =               -1415.9538653936240280
    Two-Electron Energy =                 565.5292552948778848
    DFT Exchange-Correlation Energy =       0.0000000000000000
    Empirical Dispersion Energy =           0.0000000000000000
    PCM Polarization Energy =               0.0000000000000000
    EFP Energy =                            0.0000000000000000
    Total Energy =                       -434.1684739925312897

    Alert: EFP and PCM quantities not currently incorporated into SCF psivars.

Properties will be evaluated at   0.000000,   0.000000,   0.000000 Bohr
  ==> Properties <==


Properties computed using the SCF density matrix

  Nuclear Dipole Moment: (a.u.)
     X:    -0.0000      Y:    -7.7645      Z:     0.0000

  Electronic Dipole Moment: (a.u.)
     X:     0.0000      Y:     5.8281      Z:    -0.0000

  Dipole Moment: (a.u.)
     X:     0.0000      Y:    -1.9364      Z:    -0.0000     Total:     1.9364

  Dipole Moment: (Debye)
     X:     0.0000      Y:    -4.9219      Z:    -0.0000     Total:     4.9219


  Saving occupied orbitals to File 180.

*** tstop() called on cx1-3-5-3.cx1.hpc.ic.ac.uk at Tue Jul  5 16:47:10 2016
Module time:
	user time   =      15.09 seconds =       0.25 minutes
	system time =       0.09 seconds =       0.00 minutes
	total time  =         15 seconds =       0.25 minutes
Total time:
	user time   =      15.09 seconds =       0.25 minutes
	system time =       0.09 seconds =       0.00 minutes
	total time  =         15 seconds =       0.25 minutes


Properties will be evaluated at   0.000000,   0.000000,   0.000000 Bohr

Properties computed using the  density matrix

  Nuclear Dipole Moment: (a.u.)
     X:    -0.0000      Y:    -7.7645      Z:     0.0000

  Electronic Dipole Moment: (a.u.)
     X:     0.0000      Y:     5.8281      Z:    -0.0000

  Dipole Moment: (a.u.)
     X:     0.0000      Y:    -1.9364      Z:    -0.0000     Total:     1.9364

  Dipole Moment: (Debye)
     X:     0.0000      Y:    -4.9219      Z:    -0.0000     Total:     4.9219

  Quadrupole Moment: (Debye Ang)
    XX:   -53.7359     YY:   -54.3582     ZZ:   -46.7592
    XY:     0.0000     XZ:    -5.1873     YZ:    -0.0000

  Traceless Quadrupole Moment: (Debye Ang)
    XX:    -2.1182     YY:    -2.7405     ZZ:     4.8586
    XY:     0.0000     XZ:    -5.1873     YZ:    -0.0000

  Mulliken Charges: (a.u.)
   Center  Symbol    Alpha    Beta     Spin     Total
       1     H     0.37307  0.37307  0.00000  0.25387
       2     C     3.08546  3.08546  0.00000 -0.17091
       3     C     3.10584  3.10584  0.00000 -0.21168
       4     C     2.90413  2.90413  0.00000  0.19175
       5     H     0.38824  0.38824  0.00000  0.22352
       6     C     3.09018  3.09018  0.00000 -0.18036
       7     N     3.25948  3.25948  0.00000  0.48104
       8     C     3.08546  3.08546  0.00000 -0.17091
       9     H     0.38953  0.38953  0.00000  0.22093
      10     C     3.10584  3.10584  0.00000 -0.21168
      11     O     4.22574  4.22574  0.00000 -0.45148
      12     O     4.22574  4.22574  0.00000 -0.45148
      13     H     0.37307  0.37307  0.00000  0.25387
      14     H     0.38824  0.38824  0.00000  0.22352

   Total alpha = 32.00000, Total beta = 32.00000, Total charge =  0.00000


*** PSI4 exiting successfully. Buy a developer a beer!
