    -----------------------------------------------------------------------
          Psi4: An Open-Source Ab Initio Electronic Structure Package
                              Psi4 (no tag) Driver

                          Git: Rev {detached?}  

    J. M. Turney, A. C. Simmonett, R. M. Parrish, E. G. Hohenstein,
    F. A. Evangelista, J. T. Fermann, B. J. Mintz, L. A. Burns, J. J. Wilke,
    M. L. Abrams, N. J. Russ, M. L. Leininger, C. L. Janssen, E. T. Seidl,
    W. D. Allen, H. F. Schaefer, R. A. King, E. F. Valeev, C. D. Sherrill,
    and T. D. Crawford, WIREs Comput. Mol. Sci. 2, 556-565 (2012)
    (doi: 10.1002/wcms.93)

                         Additional Contributions by
    A. E. DePrince, M. Saitow, U. Bozkaya, A. Yu. Sokolov
    -----------------------------------------------------------------------


    Psi4 started on: Tue Jul  5 17:58:34 2016

    Process ID:   3704
    PSI4DATADIR: /export131/home/mjharvey/miniconda3/share
    Memory level set to 256.000 MB

  ==> Input File <==

--------------------------------------------------------------------------
set {
	reference rhf
	basis 6-31G*
}


set_num_threads( 1 )
memory 2 gb

molecule MOL {
0 1

H	 -3.381511	 1.132353	 1.049652
O	 -3.457279	 1.919852	 1.568473
C	 -4.731433	 1.977976	 2.157715
C	 -4.911589	 0.983765	 3.299562
H	 -4.836559	 2.988000	 2.532513
H	 -5.505978	 1.829994	 1.406076
C	 -3.759849	 0.978463	 4.307697
H	 -5.843273	 1.211189	 3.811041
H	 -5.020287	 -0.010489	 2.869432
C	 -2.458457	 0.429914	 3.715842
H	 -4.044284	 0.384313	 5.171669
H	 -3.588787	 1.993216	 4.667355
C	 -2.087810	 0.996018	 2.340165
H	 -1.642680	 0.614289	 4.412520
H	 -2.545531	 -0.651258	 3.631071
C	 -3.034785	 0.600176	 1.203932
H	 -2.066895	 2.081496	 2.411684
H	 -1.073540	 0.690794	 2.087315
C	 -4.465221	 1.099239	 1.418936
H	 -3.044660	 -0.484477	 1.106250
H	 -2.666261	 0.987989	 0.257311
C	 -5.411106	 0.710962	 0.283063
H	 -4.847259	 0.703375	 2.357459
H	 -4.456195	 2.181939	 1.526468
H	 -5.467273	 -0.368187	 0.171231
H	 -6.416738	 1.077069	 0.465559
H	 -5.076338	 1.123259	 -0.664726

	symmetry c1
}
set optking {
	frozen_dihedral = ("
		14 10 7 4,
		14 10 13 16,
		10 7 4 8,
		8 4 3 2,
		20 16 19 22,
		4 3 2 1
	")
}

ee = energy('scf')
oeprop('DIPOLE', 'QUADRUPOLE', 'MULLIKEN_CHARGES')
f=open( 'psi4out.xyz', 'w' )
f.write( "27  " )
f.write( str(ee) + "\n" )
f.write( MOL.save_string_xyz() )
f.close()
--------------------------------------------------------------------------

  Memory set to   2.000 GiB by Python script.

*** tstart() called on cx1-3-4-2.cx1.hpc.ic.ac.uk
*** at Tue Jul  5 17:58:35 2016


         ---------------------------------------------------------
                                   SCF
            by Justin Turney, Rob Parrish, and Andy Simmonett
                              RHF Reference
                        1 Threads,   2000 MiB Core
         ---------------------------------------------------------

  ==> Geometry <==

    Molecular point group: c1
    Full point group: C1

    Geometry (in Angstrom), charge = 0, multiplicity = 1:

       Center              X                  Y                   Z               Mass       
    ------------   -----------------  -----------------  -----------------  -----------------
           H          0.442999568985     0.043891974474    -1.174084905460     1.007825032070
           O          0.367231568985     0.831390974474    -0.655263905460    15.994914619560
           C         -0.906922431015     0.889514974474    -0.066021905460    12.000000000000
           C         -1.087078431015    -0.104696025526     1.075825094540    12.000000000000
           H         -1.012048431015     1.899538974474     0.308776094540     1.007825032070
           H         -1.681467431015     0.741532974474    -0.817660905460     1.007825032070
           C          0.064661568985    -0.109998025526     2.083960094540    12.000000000000
           H         -2.018762431015     0.122727974474     1.587304094540     1.007825032070
           H         -1.195776431015    -1.098950025526     0.645695094540     1.007825032070
           C          1.366053568985    -0.658547025526     1.492105094540    12.000000000000
           H         -0.219773431015    -0.704148025526     2.947932094540     1.007825032070
           H          0.235723568985     0.904754974474     2.443618094540     1.007825032070
           C          1.736700568985    -0.092443025526     0.116428094540    12.000000000000
           H          2.181830568985    -0.474172025526     2.188783094540     1.007825032070
           H          1.278979568985    -1.739719025526     1.407334094540     1.007825032070
           C          0.789725568985    -0.488285025526    -1.019804905460    12.000000000000
           H          1.757615568985     0.993034974474     0.187947094540     1.007825032070
           H          2.750970568985    -0.397667025526    -0.136421905460     1.007825032070
           C         -0.640710431015     0.010777974474    -0.804800905460    12.000000000000
           H          0.779850568985    -1.572938025526    -1.117486905460     1.007825032070
           H          1.158249568985    -0.100472025526    -1.966425905460     1.007825032070
           C         -1.586595431015    -0.377499025526    -1.940673905460    12.000000000000
           H         -1.022748431015    -0.385086025526     0.133722094540     1.007825032070
           H         -0.631684431015     1.093477974474    -0.697268905460     1.007825032070
           H         -1.642762431015    -1.456648025526    -2.052505905460     1.007825032070
           H         -2.592227431015    -0.011392025526    -1.758177905460     1.007825032070
           H         -1.251827431015     0.034797974474    -2.888462905460     1.007825032070

  Running in c1 symmetry.

  Rotational constants: A =      0.09549  B =      0.05637  C =      0.04381 [cm^-1]
  Rotational constants: A =   2862.60811  B =   1689.84788  C =   1313.29307 [MHz]
  Nuclear repulsion =  610.872365850381016

  Charge       = 0
  Multiplicity = 1
  Electrons    = 74
  Nalpha       = 37
  Nbeta        = 37

  ==> Algorithm <==

  SCF Algorithm Type is DF.
  DIIS enabled.
  MOM disabled.
  Fractional occupation disabled.
  Guess Type is CORE.
  Energy threshold   = 1.00e-06
  Density threshold  = 1.00e-06
  Integral threshold = 0.00e+00

  ==> Primary Basis <==

  Basis Set: 6-31G*
    Number of shells: 90
    Number of basis function: 171
    Number of Cartesian functions: 171
    Spherical Harmonics?: false
    Max angular momentum: 2

  ==> Pre-Iterations <==

   -------------------------------------------------------
    Irrep   Nso     Nmo     Nalpha   Nbeta   Ndocc  Nsocc
   -------------------------------------------------------
     A        171     171       0       0       0       0
   -------------------------------------------------------
    Total     171     171      37      37      37       0
   -------------------------------------------------------

 OEINTS: Overlap, kinetic, potential, dipole, and quadrupole integrals
         stored in file 35.

  ==> Integral Setup <==

  ==> DFJK: Density-Fitted J/K Matrices <==

    J tasked:                  Yes
    K tasked:                  Yes
    wK tasked:                  No
    OpenMP threads:              1
    Integrals threads:           1
    Memory (MB):              1430
    Algorithm:                Core
    Integral Cache:           NONE
    Schwarz Cutoff:          1E-12
    Fitting Condition:       1E-12

   => Auxiliary Basis Set <=

  Basis Set: 
    Number of shells: 378
    Number of basis function: 1179
    Number of Cartesian functions: 1179
    Spherical Harmonics?: false
    Max angular momentum: 3

  Minimum eigenvalue in the overlap matrix is 4.8212818317E-04.
  Using Symmetric Orthogonalization.
  SCF Guess: Core (One-Electron) Hamiltonian.

  ==> Iterations <==

                           Total Energy        Delta E     RMS |[F,P]|

   @DF-RHF iter   1:  -195.61105643528231   -1.95611e+02   8.78583e-02 
   @DF-RHF iter   2:  -109.77667302455779    8.58344e+01   6.94625e-02 DIIS
   @DF-RHF iter   3:  -284.51329854029984   -1.74737e+02   6.07715e-02 DIIS
   @DF-RHF iter   4:  -342.58896329759216   -5.80757e+01   4.35449e-02 DIIS
   @DF-RHF iter   5:  -366.67642330245667   -2.40875e+01   2.93408e-02 DIIS
   @DF-RHF iter   6:  -383.79164875142465   -1.71152e+01   1.04391e-02 DIIS
   @DF-RHF iter   7:  -385.12348642327254   -1.33184e+00   5.66552e-03 DIIS
   @DF-RHF iter   8:  -385.51050350381263   -3.87017e-01   1.40422e-03 DIIS
   @DF-RHF iter   9:  -385.53707529935332   -2.65718e-02   4.69220e-04 DIIS
   @DF-RHF iter  10:  -385.54194911766876   -4.87382e-03   1.62550e-04 DIIS
   @DF-RHF iter  11:  -385.54295245348806   -1.00334e-03   5.22362e-05 DIIS
   @DF-RHF iter  12:  -385.54309620539209   -1.43752e-04   2.41446e-05 DIIS
   @DF-RHF iter  13:  -385.54313381571285   -3.76103e-05   1.28221e-05 DIIS
   @DF-RHF iter  14:  -385.54314696685742   -1.31511e-05   6.68975e-06 DIIS
   @DF-RHF iter  15:  -385.54315228067594   -5.31382e-06   3.70596e-06 DIIS
   @DF-RHF iter  16:  -385.54315472756218   -2.44689e-06   2.45440e-06 DIIS
   @DF-RHF iter  17:  -385.54315579588967   -1.06833e-06   1.48691e-06 DIIS
   @DF-RHF iter  18:  -385.54315626046764   -4.64578e-07   7.47657e-07 DIIS

  ==> Post-Iterations <==

    Orbital Energies (a.u.)
    -----------------------

    Doubly Occupied:                                                      

       1A    -20.517591     2A    -11.268741     3A    -11.261083  
       4A    -11.242119     5A    -11.238114     6A    -11.224473  
       7A    -11.222405     8A    -11.219903     9A    -11.199093  
      10A     -1.807572    11A     -1.432765    12A     -1.253113  
      13A     -1.110621    14A     -1.043567    15A     -0.980441  
      16A     -0.934498    17A     -0.883483    18A     -0.811002  
      19A     -0.795747    20A     -0.767773    21A     -0.733205  
      22A     -0.667327    23A     -0.655662    24A     -0.628641  
      25A     -0.610159    26A     -0.586462    27A     -0.575004  
      28A     -0.564463    29A     -0.549537    30A     -0.505751  
      31A     -0.485040    32A     -0.479444    33A     -0.451190  
      34A     -0.395517    35A     -0.333146    36A     -0.206823  
      37A     -0.141646  

    Virtual:                                                              

      38A      0.191758    39A      0.201822    40A      0.217000  
      41A      0.254319    42A      0.262638    43A      0.280373  
      44A      0.290795    45A      0.298683    46A      0.305444  
      47A      0.311552    48A      0.320948    49A      0.329966  
      50A      0.341249    51A      0.349768    52A      0.358593  
      53A      0.374409    54A      0.393270    55A      0.408460  
      56A      0.415756    57A      0.436401    58A      0.451634  
      59A      0.477143    60A      0.523366    61A      0.544042  
      62A      0.601881    63A      0.615171    64A      0.656595  
      65A      0.667292    66A      0.688305    67A      0.719328  
      68A      0.736996    69A      0.756063    70A      0.771764  
      71A      0.784503    72A      0.838917    73A      0.849948  
      74A      0.885666    75A      0.902940    76A      0.913134  
      77A      0.946997    78A      0.950145    79A      0.991745  
      80A      0.995699    81A      1.024456    82A      1.048933  
      83A      1.064675    84A      1.085658    85A      1.116146  
      86A      1.120535    87A      1.137725    88A      1.150314  
      89A      1.153762    90A      1.174917    91A      1.186681  
      92A      1.191422    93A      1.200576    94A      1.228844  
      95A      1.239181    96A      1.247439    97A      1.255424  
      98A      1.281476    99A      1.300651   100A      1.331091  
     101A      1.350390   102A      1.391614   103A      1.420223  
     104A      1.433521   105A      1.455080   106A      1.497827  
     107A      1.596025   108A      1.629530   109A      1.671390  
     110A      1.718891   111A      1.760565   112A      1.790426  
     113A      1.823232   114A      1.844038   115A      1.858136  
     116A      1.920041   117A      1.988808   118A      1.993318  
     119A      2.053221   120A      2.083872   121A      2.097275  
     122A      2.141635   123A      2.164834   124A      2.193012  
     125A      2.211977   126A      2.240192   127A      2.251712  
     128A      2.280662   129A      2.348697   130A      2.370049  
     131A      2.382487   132A      2.447249   133A      2.462825  
     134A      2.516530   135A      2.537236   136A      2.564528  
     137A      2.591712   138A      2.612655   139A      2.627925  
     140A      2.655229   141A      2.676012   142A      2.711837  
     143A      2.734201   144A      2.768830   145A      2.782066  
     146A      2.811656   147A      2.848298   148A      2.889932  
     149A      2.908154   150A      3.001568   151A      3.038042  
     152A      3.088717   153A      3.107473   154A      3.136664  
     155A      3.180420   156A      3.248494   157A      3.344640  
     158A      3.404760   159A      3.477910   160A      3.620693  
     161A      4.095469   162A      4.557094   163A      4.623120  
     164A      4.752621   165A      4.792649   166A      4.901558  
     167A      4.931454   168A      5.047821   169A      5.064464  
     170A      5.244137   171A      5.386727  

    Final Occupation by Irrep:
              A 
    DOCC [    37 ]

  Energy converged.

  @DF-RHF Final Energy:  -385.54315626046764

   => Energetics <=

    Nuclear Repulsion Energy =            610.8723658503810157
    One-Electron Energy =               -1731.2651887101112607
    Two-Electron Energy =                 734.8496665992629460
    DFT Exchange-Correlation Energy =       0.0000000000000000
    Empirical Dispersion Energy =           0.0000000000000000
    PCM Polarization Energy =               0.0000000000000000
    EFP Energy =                            0.0000000000000000
    Total Energy =                       -385.5431562604671853

    Alert: EFP and PCM quantities not currently incorporated into SCF psivars.

Properties will be evaluated at   0.000000,   0.000000,   0.000000 Bohr
  ==> Properties <==


Properties computed using the SCF density matrix

  Nuclear Dipole Moment: (a.u.)
     X:    -2.5133      Y:    -1.9717      Z:    -0.7132

  Electronic Dipole Moment: (a.u.)
     X:     2.0286      Y:     1.5853      Z:     1.2416

  Dipole Moment: (a.u.)
     X:    -0.4848      Y:    -0.3864      Z:     0.5284     Total:     0.8145

  Dipole Moment: (Debye)
     X:    -1.2322      Y:    -0.9821      Z:     1.3430     Total:     2.0704


  Saving occupied orbitals to File 180.

*** tstop() called on cx1-3-4-2.cx1.hpc.ic.ac.uk at Tue Jul  5 17:59:15 2016
Module time:
	user time   =      39.20 seconds =       0.65 minutes
	system time =       0.37 seconds =       0.01 minutes
	total time  =         40 seconds =       0.67 minutes
Total time:
	user time   =      39.20 seconds =       0.65 minutes
	system time =       0.37 seconds =       0.01 minutes
	total time  =         40 seconds =       0.67 minutes


Properties will be evaluated at   0.000000,   0.000000,   0.000000 Bohr

Properties computed using the  density matrix

  Nuclear Dipole Moment: (a.u.)
     X:    -2.5133      Y:    -1.9717      Z:    -0.7132

  Electronic Dipole Moment: (a.u.)
     X:     2.0286      Y:     1.5853      Z:     1.2416

  Dipole Moment: (a.u.)
     X:    -0.4848      Y:    -0.3864      Z:     0.5284     Total:     0.8145

  Dipole Moment: (Debye)
     X:    -1.2322      Y:    -0.9821      Z:     1.3430     Total:     2.0704

  Quadrupole Moment: (Debye Ang)
    XX:   -63.7314     YY:   -63.1665     ZZ:   -59.4935
    XY:     4.7441     XZ:     1.5523     YZ:    -1.7036

  Traceless Quadrupole Moment: (Debye Ang)
    XX:    -1.6009     YY:    -1.0360     ZZ:     2.6369
    XY:     4.7441     XZ:     1.5523     YZ:    -1.7036

  Mulliken Charges: (a.u.)
   Center  Symbol    Alpha    Beta     Spin     Total
       1     H     0.43929  0.43929  0.00000  0.12143
       2     O     4.20441  4.20441  0.00000 -0.40883
       3     C     3.08528  3.08528  0.00000 -0.17055
       4     C     3.23903  3.23903  0.00000 -0.47806
       5     H     0.45160  0.45160  0.00000  0.09679
       6     H     0.56949  0.56949  0.00000 -0.13898
       7     C     3.16089  3.16089  0.00000 -0.32179
       8     H     0.38649  0.38649  0.00000  0.22703
       9     H     0.34101  0.34101  0.00000  0.31799
      10     C     3.16044  3.16044  0.00000 -0.32089
      11     H     0.41089  0.41089  0.00000  0.17822
      12     H     0.40581  0.40581  0.00000  0.18839
      13     C     3.16734  3.16734  0.00000 -0.33468
      14     H     0.41457  0.41457  0.00000  0.17087
      15     H     0.42182  0.42182  0.00000  0.15637
      16     C     3.11980  3.11980  0.00000 -0.23959
      17     H     0.40357  0.40357  0.00000  0.19286
      18     H     0.42602  0.42602  0.00000  0.14796
      19     C     3.01293  3.01293  0.00000 -0.02586
      20     H     0.49454  0.49454  0.00000  0.01091
      21     H     0.44361  0.44361  0.00000  0.11278
      22     C     3.26036  3.26036  0.00000 -0.52072
      23     H     0.35696  0.35696  0.00000  0.28608
      24     H     0.41188  0.41188  0.00000  0.17624
      25     H     0.40748  0.40748  0.00000  0.18505
      26     H     0.38789  0.38789  0.00000  0.22422
      27     H     0.41662  0.41662  0.00000  0.16675

   Total alpha = 37.00000, Total beta = 37.00000, Total charge = -0.00000


*** PSI4 exiting successfully. Buy a developer a beer!
