    -----------------------------------------------------------------------
          Psi4: An Open-Source Ab Initio Electronic Structure Package
                              Psi4 (no tag) Driver

                          Git: Rev {detached?}  

    J. M. Turney, A. C. Simmonett, R. M. Parrish, E. G. Hohenstein,
    F. A. Evangelista, J. T. Fermann, B. J. Mintz, L. A. Burns, J. J. Wilke,
    M. L. Abrams, N. J. Russ, M. L. Leininger, C. L. Janssen, E. T. Seidl,
    W. D. Allen, H. F. Schaefer, R. A. King, E. F. Valeev, C. D. Sherrill,
    and T. D. Crawford, WIREs Comput. Mol. Sci. 2, 556-565 (2012)
    (doi: 10.1002/wcms.93)

                         Additional Contributions by
    A. E. DePrince, M. Saitow, U. Bozkaya, A. Yu. Sokolov
    -----------------------------------------------------------------------


    Psi4 started on: Tue Jul  5 16:58:15 2016

    Process ID:  17981
    PSI4DATADIR: /export131/home/mjharvey/miniconda3/share
    Memory level set to 256.000 MB

  ==> Input File <==

--------------------------------------------------------------------------
set {
	reference rhf
	basis 6-31G*
}


set_num_threads( 1 )
memory 2 gb

molecule MOL {
0 1

H	 -2.446370	 -1.791456	 -1.475989
C	 -1.911835	 -1.092439	 -0.860340
C	 -2.586093	 -0.134073	 -0.122872
C	 -0.535810	 -1.141156	 -0.796063
H	 -3.659248	 -0.079871	 -0.159525
C	 -1.885120	 0.759291	 0.665331
H	 0.014884	 -1.869669	 -1.353542
C	 0.154804	 -0.237046	 -0.000077
H	 -2.426675	 1.495338	 1.230175
C	 -0.494836	 0.743415	 0.757348
N	 1.611208	 -0.370857	 -0.000034
C	 0.168592	 1.768173	 1.651029
O	 2.274126	 0.622059	 -0.008063
O	 2.068510	 -1.474748	 0.007823
H	 0.843788	 2.403311	 1.094398
H	 -0.593842	 2.387099	 2.107099
H	 0.747414	 1.297718	 2.433819

	symmetry c1
}
ee = energy('scf')
oeprop('DIPOLE', 'QUADRUPOLE', 'MULLIKEN_CHARGES')
f=open( 'psi4out.xyz', 'w' )
f.write( "17  " )
f.write( str(ee) + "\n" )
f.write( MOL.save_string_xyz() )
f.close()
--------------------------------------------------------------------------

  Memory set to   2.000 GiB by Python script.

*** tstart() called on cx1-3-4-1.cx1.hpc.ic.ac.uk
*** at Tue Jul  5 16:58:16 2016


         ---------------------------------------------------------
                                   SCF
            by Justin Turney, Rob Parrish, and Andy Simmonett
                              RHF Reference
                        1 Threads,   2000 MiB Core
         ---------------------------------------------------------

  ==> Geometry <==

    Molecular point group: c1
    Full point group: C1

    Geometry (in Angstrom), charge = 0, multiplicity = 1:

       Center              X                  Y                   Z               Mass       
    ------------   -----------------  -----------------  -----------------  -----------------
           H         -2.441696351188    -1.740632021111    -1.617798956662     1.007825032070
           C         -1.907161351188    -1.041615021111    -1.002149956662    12.000000000000
           C         -2.581419351188    -0.083249021111    -0.264681956662    12.000000000000
           C         -0.531136351188    -1.090332021111    -0.937872956662    12.000000000000
           H         -3.654574351188    -0.029047021111    -0.301334956662     1.007825032070
           C         -1.880446351188     0.810114978889     0.523521043338    12.000000000000
           H          0.019557648812    -1.818845021111    -1.495351956662     1.007825032070
           C          0.159477648812    -0.186222021111    -0.141886956662    12.000000000000
           H         -2.422001351188     1.546161978889     1.088365043338     1.007825032070
           C         -0.490162351188     0.794238978889     0.615538043338    12.000000000000
           N          1.615881648812    -0.320033021111    -0.141843956662    14.003074004780
           C          0.173265648812     1.818996978889     1.509219043338    12.000000000000
           O          2.278799648812     0.672882978889    -0.149872956662    15.994914619560
           O          2.073183648812    -1.423924021111    -0.133986956662    15.994914619560
           H          0.848461648812     2.454134978889     0.952588043338     1.007825032070
           H         -0.589168351188     2.437922978889     1.965289043338     1.007825032070
           H          0.752087648812     1.348541978889     2.292009043338     1.007825032070

  Running in c1 symmetry.

  Rotational constants: A =      0.07606  B =      0.04171  C =      0.02826 [cm^-1]
  Rotational constants: A =   2280.17280  B =   1250.55874  C =    847.12374 [MHz]
  Nuclear repulsion =  508.407691332222271

  Charge       = 0
  Multiplicity = 1
  Electrons    = 72
  Nalpha       = 36
  Nbeta        = 36

  ==> Algorithm <==

  SCF Algorithm Type is DF.
  DIIS enabled.
  MOM disabled.
  Fractional occupation disabled.
  Guess Type is CORE.
  Energy threshold   = 1.00e-06
  Density threshold  = 1.00e-06
  Integral threshold = 0.00e+00

  ==> Primary Basis <==

  Basis Set: 6-31G*
    Number of shells: 74
    Number of basis function: 164
    Number of Cartesian functions: 164
    Spherical Harmonics?: false
    Max angular momentum: 2

  ==> Pre-Iterations <==

   -------------------------------------------------------
    Irrep   Nso     Nmo     Nalpha   Nbeta   Ndocc  Nsocc
   -------------------------------------------------------
     A        164     164       0       0       0       0
   -------------------------------------------------------
    Total     164     164      36      36      36       0
   -------------------------------------------------------

 OEINTS: Overlap, kinetic, potential, dipole, and quadrupole integrals
         stored in file 35.

  ==> Integral Setup <==

  ==> DFJK: Density-Fitted J/K Matrices <==

    J tasked:                  Yes
    K tasked:                  Yes
    wK tasked:                  No
    OpenMP threads:              1
    Integrals threads:           1
    Memory (MB):              1430
    Algorithm:                Core
    Integral Cache:           NONE
    Schwarz Cutoff:          1E-12
    Fitting Condition:       1E-12

   => Auxiliary Basis Set <=

  Basis Set: 
    Number of shells: 303
    Number of basis function: 985
    Number of Cartesian functions: 985
    Spherical Harmonics?: false
    Max angular momentum: 3

  Minimum eigenvalue in the overlap matrix is 3.7767797099E-04.
  Using Symmetric Orthogonalization.
  SCF Guess: Core (One-Electron) Hamiltonian.

  ==> Iterations <==

                           Total Energy        Delta E     RMS |[F,P]|

   @DF-RHF iter   1:  -359.28875878891449   -3.59289e+02   6.81387e-02 
   @DF-RHF iter   2:  -293.13943804596499    6.61493e+01   5.81127e-02 DIIS
   @DF-RHF iter   3:  -349.92361756647460   -5.67842e+01   6.34491e-02 DIIS
   @DF-RHF iter   4:  -453.77837515424869   -1.03855e+02   3.45357e-02 DIIS
   @DF-RHF iter   5:  -460.21990899805417   -6.44153e+00   2.51335e-02 DIIS
   @DF-RHF iter   6:  -472.62387020555582   -1.24040e+01   5.95567e-03 DIIS
   @DF-RHF iter   7:  -473.11761323085955   -4.93743e-01   2.62791e-03 DIIS
   @DF-RHF iter   8:  -473.19549405082000   -7.78808e-02   7.12585e-04 DIIS
   @DF-RHF iter   9:  -473.20324844021923   -7.75439e-03   2.84908e-04 DIIS
   @DF-RHF iter  10:  -473.20453934379668   -1.29090e-03   1.21739e-04 DIIS
   @DF-RHF iter  11:  -473.20487571338219   -3.36370e-04   3.89833e-05 DIIS
   @DF-RHF iter  12:  -473.20491456812317   -3.88547e-05   1.76294e-05 DIIS
   @DF-RHF iter  13:  -473.20493024931750   -1.56812e-05   1.03195e-05 DIIS
   @DF-RHF iter  14:  -473.20493441518624   -4.16587e-06   3.92339e-06 DIIS
   @DF-RHF iter  15:  -473.20493500830480   -5.93119e-07   1.74547e-06 DIIS
   @DF-RHF iter  16:  -473.20493509216863   -8.38638e-08   4.92000e-07 DIIS

  ==> Post-Iterations <==

    Orbital Energies (a.u.)
    -----------------------

    Doubly Occupied:                                                      

       1A    -20.600707     2A    -20.599885     3A    -15.853018  
       4A    -11.303726     5A    -11.282542     6A    -11.267566  
       7A    -11.262432     8A    -11.254879     9A    -11.253769  
      10A    -11.236258    11A     -1.632850    12A     -1.413727  
      13A     -1.199858    14A     -1.091883    15A     -1.073175  
      16A     -0.980286    17A     -0.932606    18A     -0.849882  
      19A     -0.820791    20A     -0.770013    21A     -0.731477  
      22A     -0.725966    23A     -0.695068    24A     -0.659043  
      25A     -0.637242    26A     -0.599354    27A     -0.593781  
      28A     -0.566064    29A     -0.541467    30A     -0.521979  
      31A     -0.520399    32A     -0.486846    33A     -0.480806  
      34A     -0.447280    35A     -0.367083    36A     -0.353881  

    Virtual:                                                              

      37A      0.074189    38A      0.122608    39A      0.161680  
      40A      0.223234    41A      0.252889    42A      0.276963  
      43A      0.302900    44A      0.309403    45A      0.314653  
      46A      0.332283    47A      0.363912    48A      0.385538  
      49A      0.398765    50A      0.449768    51A      0.478371  
      52A      0.507288    53A      0.522524    54A      0.543494  
      55A      0.614052    56A      0.677697    57A      0.697377  
      58A      0.708403    59A      0.714136    60A      0.732349  
      61A      0.750696    62A      0.793351    63A      0.799834  
      64A      0.806521    65A      0.816087    66A      0.827227  
      67A      0.834713    68A      0.853569    69A      0.887594  
      70A      0.903567    71A      0.919906    72A      0.941258  
      73A      0.980680    74A      0.986304    75A      1.035960  
      76A      1.046532    77A      1.074985    78A      1.085265  
      79A      1.090164    80A      1.099294    81A      1.135352  
      82A      1.152561    83A      1.164020    84A      1.165353  
      85A      1.198661    86A      1.202797    87A      1.211337  
      88A      1.241379    89A      1.269006    90A      1.291117  
      91A      1.317391    92A      1.324062    93A      1.351029  
      94A      1.372365    95A      1.385787    96A      1.405540  
      97A      1.437512    98A      1.477873    99A      1.497835  
     100A      1.569450   101A      1.635057   102A      1.643666  
     103A      1.680261   104A      1.694046   105A      1.732464  
     106A      1.741951   107A      1.747607   108A      1.758633  
     109A      1.864131   110A      1.904527   111A      2.003335  
     112A      2.023786   113A      2.048539   114A      2.083422  
     115A      2.111928   116A      2.138784   117A      2.143957  
     118A      2.153706   119A      2.216441   120A      2.238947  
     121A      2.261959   122A      2.280230   123A      2.287976  
     124A      2.360031   125A      2.378548   126A      2.406999  
     127A      2.431033   128A      2.451448   129A      2.469817  
     130A      2.484982   131A      2.533887   132A      2.551106  
     133A      2.586996   134A      2.628572   135A      2.640776  
     136A      2.687587   137A      2.723517   138A      2.789074  
     139A      2.830126   140A      2.897064   141A      2.937340  
     142A      2.996600   143A      3.013494   144A      3.033817  
     145A      3.095760   146A      3.109019   147A      3.131954  
     148A      3.195270   149A      3.230442   150A      3.286474  
     151A      3.303998   152A      3.484030   153A      3.575522  
     154A      3.814655   155A      4.154863   156A      4.304018  
     157A      4.324816   158A      4.503687   159A      4.532644  
     160A      4.543857   161A      4.681218   162A      4.774827  
     163A      4.813634   164A      5.135026  

    Final Occupation by Irrep:
              A 
    DOCC [    36 ]

  Energy converged.

  @DF-RHF Final Energy:  -473.20493509216863

   => Energetics <=

    Nuclear Repulsion Energy =            508.4076913322222708
    One-Electron Energy =               -1652.0099496996867856
    Two-Electron Energy =                 670.3973232752945250
    DFT Exchange-Correlation Energy =       0.0000000000000000
    Empirical Dispersion Energy =           0.0000000000000000
    PCM Polarization Energy =               0.0000000000000000
    EFP Energy =                            0.0000000000000000
    Total Energy =                       -473.2049350921698760

    Alert: EFP and PCM quantities not currently incorporated into SCF psivars.

Properties will be evaluated at   0.000000,   0.000000,   0.000000 Bohr
  ==> Properties <==


Properties computed using the SCF density matrix

  Nuclear Dipole Moment: (a.u.)
     X:    -7.0029      Y:     3.9330      Z:     2.7025

  Electronic Dipole Moment: (a.u.)
     X:     5.1557      Y:    -3.6291      Z:    -2.6278

  Dipole Moment: (a.u.)
     X:    -1.8473      Y:     0.3039      Z:     0.0747     Total:     1.8736

  Dipole Moment: (Debye)
     X:    -4.6953      Y:     0.7724      Z:     0.1898     Total:     4.7621


  Saving occupied orbitals to File 180.

*** tstop() called on cx1-3-4-1.cx1.hpc.ic.ac.uk at Tue Jul  5 16:58:38 2016
Module time:
	user time   =      21.86 seconds =       0.36 minutes
	system time =       0.25 seconds =       0.00 minutes
	total time  =         22 seconds =       0.37 minutes
Total time:
	user time   =      21.86 seconds =       0.36 minutes
	system time =       0.25 seconds =       0.00 minutes
	total time  =         22 seconds =       0.37 minutes


Properties will be evaluated at   0.000000,   0.000000,   0.000000 Bohr

Properties computed using the  density matrix

  Nuclear Dipole Moment: (a.u.)
     X:    -7.0029      Y:     3.9330      Z:     2.7025

  Electronic Dipole Moment: (a.u.)
     X:     5.1557      Y:    -3.6291      Z:    -2.6278

  Dipole Moment: (a.u.)
     X:    -1.8473      Y:     0.3039      Z:     0.0747     Total:     1.8736

  Dipole Moment: (Debye)
     X:    -4.6953      Y:     0.7724      Z:     0.1898     Total:     4.7621

  Quadrupole Moment: (Debye Ang)
    XX:   -61.3286     YY:   -57.8542     ZZ:   -54.9280
    XY:     1.4959     XZ:     1.3889     YZ:     5.2813

  Traceless Quadrupole Moment: (Debye Ang)
    XX:    -3.2917     YY:     0.1827     ZZ:     3.1089
    XY:     1.4959     XZ:     1.3889     YZ:     5.2813

  Mulliken Charges: (a.u.)
   Center  Symbol    Alpha    Beta     Spin     Total
       1     H     0.38923  0.38923  0.00000  0.22153
       2     C     3.11142  3.11142  0.00000 -0.22284
       3     C     3.08268  3.08268  0.00000 -0.16536
       4     C     3.08252  3.08252  0.00000 -0.16503
       5     H     0.38996  0.38996  0.00000  0.22008
       6     C     3.12477  3.12477  0.00000 -0.24953
       7     H     0.37061  0.37061  0.00000  0.25879
       8     C     2.92250  2.92250  0.00000  0.15499
       9     H     0.39293  0.39293  0.00000  0.21413
      10     C     2.96231  2.96231  0.00000  0.07538
      11     N     3.26180  3.26180  0.00000  0.47641
      12     C     3.24795  3.24795  0.00000 -0.49591
      13     O     4.22899  4.22899  0.00000 -0.45798
      14     O     4.22768  4.22768  0.00000 -0.45537
      15     H     0.38947  0.38947  0.00000  0.22106
      16     H     0.41181  0.41181  0.00000  0.17638
      17     H     0.40337  0.40337  0.00000  0.19326

   Total alpha = 36.00000, Total beta = 36.00000, Total charge =  0.00000


*** PSI4 exiting successfully. Buy a developer a beer!
