    -----------------------------------------------------------------------
          Psi4: An Open-Source Ab Initio Electronic Structure Package
                              Psi4 (no tag) Driver

                          Git: Rev {detached?}  

    J. M. Turney, A. C. Simmonett, R. M. Parrish, E. G. Hohenstein,
    F. A. Evangelista, J. T. Fermann, B. J. Mintz, L. A. Burns, J. J. Wilke,
    M. L. Abrams, N. J. Russ, M. L. Leininger, C. L. Janssen, E. T. Seidl,
    W. D. Allen, H. F. Schaefer, R. A. King, E. F. Valeev, C. D. Sherrill,
    and T. D. Crawford, WIREs Comput. Mol. Sci. 2, 556-565 (2012)
    (doi: 10.1002/wcms.93)

                         Additional Contributions by
    A. E. DePrince, M. Saitow, U. Bozkaya, A. Yu. Sokolov
    -----------------------------------------------------------------------


    Psi4 started on: Tue Jul  5 16:22:23 2016

    Process ID:  25772
    PSI4DATADIR: /export131/home/mjharvey/miniconda3/share
    Memory level set to 256.000 MB

  ==> Input File <==

--------------------------------------------------------------------------
set {
	reference rhf
	basis 6-31G*
}


set_num_threads( 1 )
memory 2 gb

molecule MOL {
0 1

H	 -0.216825	 0.021369	 -3.357402
C	 0.374198	 0.036393	 -2.447010
C	 -0.521757	 -0.028637	 -1.217342
H	 0.969602	 0.942322	 -2.434777
H	 1.053364	 -0.811668	 -2.481329
N	 0.263400	 0.031178	 0.000000
H	 -1.199035	 0.820290	 -1.219355
H	 -1.147901	 -0.924895	 -1.265384
C	 -0.521757	 -0.028637	 1.217342
H	 0.935769	 -0.712709	 0.000000
C	 0.374950	 -0.203374	 2.435714
H	 -1.072065	 0.903460	 1.305334
H	 -1.268426	 -0.828328	 1.192393
H	 1.092574	 0.606902	 2.497610
H	 -0.211830	 -0.218280	 3.348849
H	 0.927266	 -1.138211	 2.383954

	symmetry c1
}
ee = energy('scf')
oeprop('DIPOLE', 'QUADRUPOLE', 'MULLIKEN_CHARGES')
f=open( 'psi4out.xyz', 'w' )
f.write( "16  " )
f.write( str(ee) + "\n" )
f.write( MOL.save_string_xyz() )
f.close()
--------------------------------------------------------------------------

  Memory set to   2.000 GiB by Python script.

*** tstart() called on cx1-3-1-3.cx1.hpc.ic.ac.uk
*** at Tue Jul  5 16:22:23 2016


         ---------------------------------------------------------
                                   SCF
            by Justin Turney, Rob Parrish, and Andy Simmonett
                              RHF Reference
                        1 Threads,   2000 MiB Core
         ---------------------------------------------------------

  ==> Geometry <==

    Molecular point group: c1
    Full point group: C1

    Geometry (in Angstrom), charge = 0, multiplicity = 1:

       Center              X                  Y                   Z               Mass       
    ------------   -----------------  -----------------  -----------------  -----------------
           H         -0.217063540143     0.070688273263    -3.355132243276     1.007825032070
           C          0.373959459857     0.085712273263    -2.444740243276    12.000000000000
           C         -0.521995540143     0.020682273263    -1.215072243276    12.000000000000
           H          0.969363459857     0.991641273263    -2.432507243276     1.007825032070
           H          1.053125459857    -0.762348726737    -2.479059243276     1.007825032070
           N          0.263161459857     0.080497273263     0.002269756724    14.003074004780
           H         -1.199273540143     0.869609273263    -1.217085243276     1.007825032070
           H         -1.148139540143    -0.875575726737    -1.263114243276     1.007825032070
           C         -0.521995540143     0.020682273263     1.219611756724    12.000000000000
           H          0.935530459857    -0.663389726737     0.002269756724     1.007825032070
           C          0.374711459857    -0.154054726737     2.437983756724    12.000000000000
           H         -1.072303540143     0.952779273263     1.307603756724     1.007825032070
           H         -1.268664540143    -0.779008726737     1.194662756724     1.007825032070
           H          1.092335459857     0.656221273263     2.499879756724     1.007825032070
           H         -0.212068540143    -0.168960726737     3.351118756724     1.007825032070
           H          0.927027459857    -1.088891726737     2.386223756724     1.007825032070

  Running in c1 symmetry.

  Rotational constants: A =      0.59355  B =      0.07057  C =      0.06645 [cm^-1]
  Rotational constants: A =  17794.24600  B =   2115.70027  C =   1991.97356 [MHz]
  Nuclear repulsion =  189.248351356107918

  Charge       = 0
  Multiplicity = 1
  Electrons    = 42
  Nalpha       = 21
  Nbeta        = 21

  ==> Algorithm <==

  SCF Algorithm Type is DF.
  DIIS enabled.
  MOM disabled.
  Fractional occupation disabled.
  Guess Type is CORE.
  Energy threshold   = 1.00e-06
  Density threshold  = 1.00e-06
  Integral threshold = 0.00e+00

  ==> Primary Basis <==

  Basis Set: 6-31G*
    Number of shells: 52
    Number of basis function: 97
    Number of Cartesian functions: 97
    Spherical Harmonics?: false
    Max angular momentum: 2

  ==> Pre-Iterations <==

   -------------------------------------------------------
    Irrep   Nso     Nmo     Nalpha   Nbeta   Ndocc  Nsocc
   -------------------------------------------------------
     A         97      97       0       0       0       0
   -------------------------------------------------------
    Total      97      97      21      21      21       0
   -------------------------------------------------------

 OEINTS: Overlap, kinetic, potential, dipole, and quadrupole integrals
         stored in file 35.

  ==> Integral Setup <==

  ==> DFJK: Density-Fitted J/K Matrices <==

    J tasked:                  Yes
    K tasked:                  Yes
    wK tasked:                  No
    OpenMP threads:              1
    Integrals threads:           1
    Memory (MB):              1430
    Algorithm:                Core
    Integral Cache:           NONE
    Schwarz Cutoff:          1E-12
    Fitting Condition:       1E-12

   => Auxiliary Basis Set <=

  Basis Set: 
    Number of shells: 219
    Number of basis function: 680
    Number of Cartesian functions: 680
    Spherical Harmonics?: false
    Max angular momentum: 3

  Minimum eigenvalue in the overlap matrix is 4.2228806869E-03.
  Using Symmetric Orthogonalization.
  SCF Guess: Core (One-Electron) Hamiltonian.

  ==> Iterations <==

                           Total Energy        Delta E     RMS |[F,P]|

   @DF-RHF iter   1:  -148.04679710764449   -1.48047e+02   8.35826e-02 
   @DF-RHF iter   2:  -155.62239489154567   -7.57560e+00   5.71032e-02 DIIS
   @DF-RHF iter   3:  -178.92082067381173   -2.32984e+01   5.81085e-02 DIIS
   @DF-RHF iter   4:  -211.75130341823510   -3.28305e+01   9.73660e-03 DIIS
   @DF-RHF iter   5:  -212.27453623274155   -5.23233e-01   2.63289e-03 DIIS
   @DF-RHF iter   6:  -212.31031624943788   -3.57800e-02   7.68652e-04 DIIS
   @DF-RHF iter   7:  -212.31340846842929   -3.09222e-03   2.04384e-04 DIIS
   @DF-RHF iter   8:  -212.31360655431794   -1.98086e-04   4.26649e-05 DIIS
   @DF-RHF iter   9:  -212.31362175030384   -1.51960e-05   9.83579e-06 DIIS
   @DF-RHF iter  10:  -212.31362270363158   -9.53328e-07   2.24582e-06 DIIS
   @DF-RHF iter  11:  -212.31362275326862   -4.96370e-08   6.17019e-07 DIIS

  ==> Post-Iterations <==

    Orbital Energies (a.u.)
    -----------------------

    Doubly Occupied:                                                      

       1A    -15.533966     2A    -11.240412     3A    -11.240370  
       4A    -11.210026     5A    -11.208138     6A     -1.205577  
       7A     -1.028594     8A     -0.962878     9A     -0.832406  
      10A     -0.822158    11A     -0.659599    12A     -0.628608  
      13A     -0.600534    14A     -0.590054    15A     -0.553146  
      16A     -0.520945    17A     -0.508787    18A     -0.489187  
      19A     -0.483447    20A     -0.472678    21A     -0.359845  

    Virtual:                                                              

      22A      0.231737    23A      0.255780    24A      0.270240  
      25A      0.291699    26A      0.316448    27A      0.318898  
      28A      0.324175    29A      0.330413    30A      0.350396  
      31A      0.353936    32A      0.357767    33A      0.397022  
      34A      0.432421    35A      0.453392    36A      0.458392  
      37A      0.698775    38A      0.738139    39A      0.738784  
      40A      0.751626    41A      0.770885    42A      0.802049  
      43A      0.877169    44A      0.892266    45A      0.924552  
      46A      0.958273    47A      0.966030    48A      1.061701  
      49A      1.075848    50A      1.116717    51A      1.164405  
      52A      1.165885    53A      1.172410    54A      1.174915  
      55A      1.202434    56A      1.205542    57A      1.221177  
      58A      1.237711    59A      1.245439    60A      1.256947  
      61A      1.277328    62A      1.285941    63A      1.343824  
      64A      1.544239    65A      1.623418    66A      1.692026  
      67A      1.725724    68A      1.754512    69A      1.908310  
      70A      1.950970    71A      2.031046    72A      2.110757  
      73A      2.224139    74A      2.260102    75A      2.266713  
      76A      2.322611    77A      2.335638    78A      2.393483  
      79A      2.405543    80A      2.451686    81A      2.571896  
      82A      2.593959    83A      2.625067    84A      2.658707  
      85A      2.675854    86A      2.783245    87A      2.805413  
      88A      2.818583    89A      2.937133    90A      3.005827  
      91A      3.171351    92A      3.236224    93A      4.353990  
      94A      4.625862    95A      4.628593    96A      4.820148  
      97A      4.898919  

    Final Occupation by Irrep:
              A 
    DOCC [    21 ]

  Energy converged.

  @DF-RHF Final Energy:  -212.31362275326862

   => Energetics <=

    Nuclear Repulsion Energy =            189.2483513561079178
    One-Electron Energy =                -660.8213013117903074
    Two-Electron Energy =                 259.2593272024138287
    DFT Exchange-Correlation Energy =       0.0000000000000000
    Empirical Dispersion Energy =           0.0000000000000000
    PCM Polarization Energy =               0.0000000000000000
    EFP Energy =                            0.0000000000000000
    Total Energy =                       -212.3136227532685325

    Alert: EFP and PCM quantities not currently incorporated into SCF psivars.

Properties will be evaluated at   0.000000,   0.000000,   0.000000 Bohr
  ==> Properties <==


Properties computed using the SCF density matrix

  Nuclear Dipole Moment: (a.u.)
     X:    -0.1321      Y:    -0.7476      Z:    -0.0048

  Electronic Dipole Moment: (a.u.)
     X:    -0.0237      Y:     0.3812      Z:     0.0183

  Dipole Moment: (a.u.)
     X:    -0.1558      Y:    -0.3665      Z:     0.0134     Total:     0.3984

  Dipole Moment: (Debye)
     X:    -0.3961      Y:    -0.9314      Z:     0.0341     Total:     1.0127


  Saving occupied orbitals to File 180.

*** tstop() called on cx1-3-1-3.cx1.hpc.ic.ac.uk at Tue Jul  5 16:22:28 2016
Module time:
	user time   =       4.86 seconds =       0.08 minutes
	system time =       0.03 seconds =       0.00 minutes
	total time  =          5 seconds =       0.08 minutes
Total time:
	user time   =       4.86 seconds =       0.08 minutes
	system time =       0.03 seconds =       0.00 minutes
	total time  =          5 seconds =       0.08 minutes


Properties will be evaluated at   0.000000,   0.000000,   0.000000 Bohr

Properties computed using the  density matrix

  Nuclear Dipole Moment: (a.u.)
     X:    -0.1321      Y:    -0.7476      Z:    -0.0048

  Electronic Dipole Moment: (a.u.)
     X:    -0.0237      Y:     0.3812      Z:     0.0183

  Dipole Moment: (a.u.)
     X:    -0.1558      Y:    -0.3665      Z:     0.0134     Total:     0.3984

  Dipole Moment: (Debye)
     X:    -0.3961      Y:    -0.9314      Z:     0.0341     Total:     1.0127

  Quadrupole Moment: (Debye Ang)
    XX:   -34.2855     YY:   -34.2089     ZZ:   -33.3033
    XY:    -1.6064     XZ:     0.0111     YZ:     0.0185

  Traceless Quadrupole Moment: (Debye Ang)
    XX:    -0.3529     YY:    -0.2764     ZZ:     0.6293
    XY:    -1.6064     XZ:     0.0111     YZ:     0.0185

  Mulliken Charges: (a.u.)
   Center  Symbol    Alpha    Beta     Spin     Total
       1     H     0.42025  0.42025  0.00000  0.15950
       2     C     3.24208  3.24208  0.00000 -0.48416
       3     C     3.05311  3.05311  0.00000 -0.10621
       4     H     0.41195  0.41195  0.00000  0.17610
       5     H     0.42489  0.42489  0.00000  0.15021
       6     N     3.84976  3.84976  0.00000 -0.69953
       7     H     0.42049  0.42049  0.00000  0.15901
       8     H     0.43499  0.43499  0.00000  0.13001
       9     C     3.04990  3.04990  0.00000 -0.09981
      10     H     0.33576  0.33576  0.00000  0.32847
      11     C     3.24607  3.24607  0.00000 -0.49214
      12     H     0.42013  0.42013  0.00000  0.15973
      13     H     0.43538  0.43538  0.00000  0.12924
      14     H     0.41178  0.41178  0.00000  0.17644
      15     H     0.41875  0.41875  0.00000  0.16251
      16     H     0.42469  0.42469  0.00000  0.15062

   Total alpha = 21.00000, Total beta = 21.00000, Total charge =  0.00000


*** PSI4 exiting successfully. Buy a developer a beer!
