    -----------------------------------------------------------------------
          Psi4: An Open-Source Ab Initio Electronic Structure Package
                              Psi4 (no tag) Driver

                          Git: Rev {detached?}  

    J. M. Turney, A. C. Simmonett, R. M. Parrish, E. G. Hohenstein,
    F. A. Evangelista, J. T. Fermann, B. J. Mintz, L. A. Burns, J. J. Wilke,
    M. L. Abrams, N. J. Russ, M. L. Leininger, C. L. Janssen, E. T. Seidl,
    W. D. Allen, H. F. Schaefer, R. A. King, E. F. Valeev, C. D. Sherrill,
    and T. D. Crawford, WIREs Comput. Mol. Sci. 2, 556-565 (2012)
    (doi: 10.1002/wcms.93)

                         Additional Contributions by
    A. E. DePrince, M. Saitow, U. Bozkaya, A. Yu. Sokolov
    -----------------------------------------------------------------------


    Psi4 started on: Tue Jul  5 18:00:27 2016

    Process ID:   3896
    PSI4DATADIR: /export131/home/mjharvey/miniconda3/share
    Memory level set to 256.000 MB

  ==> Input File <==

--------------------------------------------------------------------------
set {
	reference rhf
	basis 6-31G*
}


set_num_threads( 1 )
memory 2 gb

molecule MOL {
0 1

O	 -2.249111	 -1.462047	 1.817933
C	 -1.514987	 -1.440192	 0.882411
C	 -0.521233	 -2.529060	 0.569224
O	 -1.481751	 -0.454642	 0.000584
H	 -1.055647	 -3.463897	 0.449460
H	 0.045251	 -2.312733	 -0.324497
H	 0.149673	 -2.640854	 1.412591
C	 -0.334255	 0.388708	 0.000906
C	 0.891947	 -0.504646	 0.000751
H	 -0.365390	 1.025305	 -0.873475
H	 -0.365484	 1.024911	 0.875569
C	 0.838286	 -1.556101	 -1.109219
H	 0.972990	 -0.989855	 0.969484
H	 1.777328	 0.114301	 -0.115286
C	 -0.165550	 -2.674382	 -0.822711
H	 0.580561	 -1.076907	 -2.052106
H	 1.827151	 -1.989778	 -1.247612
C	 -1.569591	 -2.151369	 -0.522723
H	 0.186978	 -3.266682	 0.018705
H	 -0.205447	 -3.348458	 -1.675412
H	 -1.568128	 -1.500106	 0.346683
H	 -2.257858	 -2.966803	 -0.323744
H	 -1.963632	 -1.582803	 -1.360264

	symmetry c1
}
set optking {
	frozen_dihedral = ("
		13 9 8 10,
		2 4 8 10,
		16 12 9 13,
		19 15 12 16
	")
}

ee = energy('scf')
oeprop('DIPOLE', 'QUADRUPOLE', 'MULLIKEN_CHARGES')
f=open( 'psi4out.xyz', 'w' )
f.write( "23  " )
f.write( str(ee) + "\n" )
f.write( MOL.save_string_xyz() )
f.close()
--------------------------------------------------------------------------

  Memory set to   2.000 GiB by Python script.

*** tstart() called on cx1-3-4-2.cx1.hpc.ic.ac.uk
*** at Tue Jul  5 18:00:28 2016


         ---------------------------------------------------------
                                   SCF
            by Justin Turney, Rob Parrish, and Andy Simmonett
                              RHF Reference
                        1 Threads,   2000 MiB Core
         ---------------------------------------------------------

  ==> Geometry <==

    Molecular point group: c1
    Full point group: C1

    Geometry (in Angstrom), charge = 0, multiplicity = 1:

       Center              X                  Y                   Z               Mass       
    ------------   -----------------  -----------------  -----------------  -----------------
           O         -1.553960797296    -0.082978818174     1.716931201937    15.994914619560
           C         -0.819836797296    -0.061123818174     0.781409201937    12.000000000000
           C          0.173917202704    -1.149991818174     0.468222201937    12.000000000000
           O         -0.786600797296     0.924426181826    -0.100417798063    15.994914619560
           H         -0.360496797296    -2.084828818174     0.348458201937     1.007825032070
           H          0.740401202704    -0.933664818174    -0.425498798063     1.007825032070
           H          0.844823202704    -1.261785818174     1.311589201937     1.007825032070
           C          0.360895202704     1.767776181826    -0.100095798063    12.000000000000
           C          1.587097202704     0.874422181826    -0.100250798063    12.000000000000
           H          0.329760202704     2.404373181826    -0.974476798063     1.007825032070
           H          0.329666202704     2.403979181826     0.774567201937     1.007825032070
           C          1.533436202704    -0.177032818174    -1.210220798063    12.000000000000
           H          1.668140202704     0.389213181826     0.868482201937     1.007825032070
           H          2.472478202704     1.493369181826    -0.216287798063     1.007825032070
           C          0.529600202704    -1.295313818174    -0.923712798063    12.000000000000
           H          1.275711202704     0.302161181826    -2.153107798063     1.007825032070
           H          2.522301202704    -0.610709818174    -1.348613798063     1.007825032070
           C         -0.874440797296    -0.772300818174    -0.623724798063    12.000000000000
           H          0.882128202704    -1.887613818174    -0.082296798063     1.007825032070
           H          0.489703202704    -1.969389818174    -1.776413798063     1.007825032070
           H         -0.872977797296    -0.121037818174     0.245681201937     1.007825032070
           H         -1.562707797296    -1.587734818174    -0.424745798063     1.007825032070
           H         -1.268481797296    -0.203734818174    -1.461265798063     1.007825032070

  Running in c1 symmetry.

  Rotational constants: A =      0.09040  B =      0.06547  C =      0.04843 [cm^-1]
  Rotational constants: A =   2710.04465  B =   1962.76794  C =   1451.94659 [MHz]
  Nuclear repulsion =  582.317658285419725

  Charge       = 0
  Multiplicity = 1
  Electrons    = 72
  Nalpha       = 36
  Nbeta        = 36

  ==> Algorithm <==

  SCF Algorithm Type is DF.
  DIIS enabled.
  MOM disabled.
  Fractional occupation disabled.
  Guess Type is CORE.
  Energy threshold   = 1.00e-06
  Density threshold  = 1.00e-06
  Integral threshold = 0.00e+00

  ==> Primary Basis <==

  Basis Set: 6-31G*
    Number of shells: 82
    Number of basis function: 163
    Number of Cartesian functions: 163
    Spherical Harmonics?: false
    Max angular momentum: 2

  ==> Pre-Iterations <==

   -------------------------------------------------------
    Irrep   Nso     Nmo     Nalpha   Nbeta   Ndocc  Nsocc
   -------------------------------------------------------
     A        163     163       0       0       0       0
   -------------------------------------------------------
    Total     163     163      36      36      36       0
   -------------------------------------------------------

 OEINTS: Overlap, kinetic, potential, dipole, and quadrupole integrals
         stored in file 35.

  ==> Integral Setup <==

  ==> DFJK: Density-Fitted J/K Matrices <==

    J tasked:                  Yes
    K tasked:                  Yes
    wK tasked:                  No
    OpenMP threads:              1
    Integrals threads:           1
    Memory (MB):              1430
    Algorithm:                Core
    Integral Cache:           NONE
    Schwarz Cutoff:          1E-12
    Fitting Condition:       1E-12

   => Auxiliary Basis Set <=

  Basis Set: 
    Number of shells: 342
    Number of basis function: 1079
    Number of Cartesian functions: 1079
    Spherical Harmonics?: false
    Max angular momentum: 3

  Minimum eigenvalue in the overlap matrix is 1.1661108252E-04.
  Using Symmetric Orthogonalization.
  SCF Guess: Core (One-Electron) Hamiltonian.

  ==> Iterations <==

                           Total Energy        Delta E     RMS |[F,P]|

   @DF-RHF iter   1:  -302.73798018720925   -3.02738e+02   7.80152e-02 
   @DF-RHF iter   2:  -207.40564815375785    9.53323e+01   6.42662e-02 DIIS
   @DF-RHF iter   3:  -325.81533958961916   -1.18410e+02   5.74682e-02 DIIS
   @DF-RHF iter   4:  -395.12208042670250   -6.93067e+01   3.51451e-02 DIIS
   @DF-RHF iter   5:  -400.59363170111112   -5.47155e+00   3.44544e-02 DIIS
   @DF-RHF iter   6:  -419.54763988731452   -1.89540e+01   8.54975e-03 DIIS
   @DF-RHF iter   7:  -420.25945427229044   -7.11814e-01   3.50651e-03 DIIS
   @DF-RHF iter   8:  -420.40573817317511   -1.46284e-01   1.14718e-03 DIIS
   @DF-RHF iter   9:  -420.42634304742921   -2.06049e-02   3.20754e-04 DIIS
   @DF-RHF iter  10:  -420.42852652425950   -2.18348e-03   1.33534e-04 DIIS
   @DF-RHF iter  11:  -420.42925076416793   -7.24240e-04   7.10029e-05 DIIS
   @DF-RHF iter  12:  -420.42961972263072   -3.68958e-04   3.99535e-05 DIIS
   @DF-RHF iter  13:  -420.42981045624197   -1.90734e-04   2.15176e-05 DIIS
   @DF-RHF iter  14:  -420.42985957197345   -4.91157e-05   1.06493e-05 DIIS
   @DF-RHF iter  15:  -420.42987044113931   -1.08692e-05   3.68454e-06 DIIS
   @DF-RHF iter  16:  -420.42987182218576   -1.38105e-06   1.30971e-06 DIIS
   @DF-RHF iter  17:  -420.42987199085519   -1.68669e-07   6.19479e-07 DIIS

  ==> Post-Iterations <==

    Orbital Energies (a.u.)
    -----------------------

    Doubly Occupied:                                                      

       1A    -20.615004     2A    -20.451509     3A    -11.394987  
       4A    -11.358656     5A    -11.326166     6A    -11.320604  
       7A    -11.305924     8A    -11.285994     9A    -11.265809  
      10A     -1.680151    11A     -1.509557    12A     -1.329066  
      13A     -1.261755    14A     -1.092236    15A     -1.052489  
      16A     -0.976905    17A     -0.888141    18A     -0.865716  
      19A     -0.829081    20A     -0.785966    21A     -0.757958  
      22A     -0.719953    23A     -0.687195    24A     -0.667785  
      25A     -0.635946    26A     -0.606112    27A     -0.583652  
      28A     -0.570486    29A     -0.547160    30A     -0.534718  
      31A     -0.504782    32A     -0.499919    33A     -0.441680  
      34A     -0.395108    35A     -0.336361    36A     -0.158160  

    Virtual:                                                              

      37A      0.183334    38A      0.192305    39A      0.216204  
      40A      0.219660    41A      0.233714    42A      0.255375  
      43A      0.262933    44A      0.277010    45A      0.292489  
      46A      0.300842    47A      0.310061    48A      0.317976  
      49A      0.341511    50A      0.345861    51A      0.368681  
      52A      0.380111    53A      0.395918    54A      0.433160  
      55A      0.437189    56A      0.521521    57A      0.534166  
      58A      0.580087    59A      0.621303    60A      0.672836  
      61A      0.691628    62A      0.704304    63A      0.715723  
      64A      0.750526    65A      0.762904    66A      0.769710  
      67A      0.802604    68A      0.836049    69A      0.848655  
      70A      0.875044    71A      0.889234    72A      0.918787  
      73A      0.945842    74A      0.961360    75A      0.968816  
      76A      0.987173    77A      1.009961    78A      1.047728  
      79A      1.069752    80A      1.082698    81A      1.088070  
      82A      1.119882    83A      1.125620    84A      1.138005  
      85A      1.147054    86A      1.171796    87A      1.180944  
      88A      1.194764    89A      1.220276    90A      1.233001  
      91A      1.283536    92A      1.325190    93A      1.349403  
      94A      1.380880    95A      1.405236    96A      1.440028  
      97A      1.453180    98A      1.512441    99A      1.529080  
     100A      1.629321   101A      1.659120   102A      1.666077  
     103A      1.699199   104A      1.726982   105A      1.818309  
     106A      1.866254   107A      1.896863   108A      1.916598  
     109A      1.921383   110A      1.990898   111A      2.023673  
     112A      2.046919   113A      2.053469   114A      2.116822  
     115A      2.127479   116A      2.134857   117A      2.187531  
     118A      2.212746   119A      2.232982   120A      2.265119  
     121A      2.284237   122A      2.313510   123A      2.333589  
     124A      2.350597   125A      2.399491   126A      2.425280  
     127A      2.446294   128A      2.474753   129A      2.498654  
     130A      2.557525   131A      2.612941   132A      2.639303  
     133A      2.658083   134A      2.694608   135A      2.708979  
     136A      2.735057   137A      2.754136   138A      2.825443  
     139A      2.833920   140A      2.849622   141A      2.927802  
     142A      2.935823   143A      2.996623   144A      3.038865  
     145A      3.085014   146A      3.139608   147A      3.169887  
     148A      3.204486   149A      3.256703   150A      3.374646  
     151A      3.436355   152A      3.507789   153A      4.222292  
     154A      4.592673   155A      4.666458   156A      4.752674  
     157A      4.757285   158A      4.860607   159A      4.969144  
     160A      5.001519   161A      5.131569   162A      5.228614  
     163A      6.259549  

    Final Occupation by Irrep:
              A 
    DOCC [    36 ]

  Energy converged.

  @DF-RHF Final Energy:  -420.42987199085519

   => Energetics <=

    Nuclear Repulsion Energy =            582.3176582854197250
    One-Electron Energy =               -1723.0096848661735294
    Two-Electron Energy =                 720.2621545898982731
    DFT Exchange-Correlation Energy =       0.0000000000000000
    Empirical Dispersion Energy =           0.0000000000000000
    PCM Polarization Energy =               0.0000000000000000
    EFP Energy =                            0.0000000000000000
    Total Energy =                       -420.4298719908556450

    Alert: EFP and PCM quantities not currently incorporated into SCF psivars.

Properties will be evaluated at   0.000000,   0.000000,   0.000000 Bohr
  ==> Properties <==


Properties computed using the SCF density matrix

  Nuclear Dipole Moment: (a.u.)
     X:     7.0108      Y:    -3.4340      Z:    -4.9739

  Electronic Dipole Moment: (a.u.)
     X:    -5.2380      Y:     4.0968      Z:     3.6756

  Dipole Moment: (a.u.)
     X:     1.7728      Y:     0.6628      Z:    -1.2983     Total:     2.2951

  Dipole Moment: (Debye)
     X:     4.5061      Y:     1.6846      Z:    -3.2998     Total:     5.8337


  Saving occupied orbitals to File 180.

*** tstop() called on cx1-3-4-2.cx1.hpc.ic.ac.uk at Tue Jul  5 18:00:59 2016
Module time:
	user time   =      30.77 seconds =       0.51 minutes
	system time =       0.31 seconds =       0.01 minutes
	total time  =         31 seconds =       0.52 minutes
Total time:
	user time   =      30.77 seconds =       0.51 minutes
	system time =       0.31 seconds =       0.01 minutes
	total time  =         31 seconds =       0.52 minutes


Properties will be evaluated at   0.000000,   0.000000,   0.000000 Bohr

Properties computed using the  density matrix

  Nuclear Dipole Moment: (a.u.)
     X:     7.0108      Y:    -3.4340      Z:    -4.9739

  Electronic Dipole Moment: (a.u.)
     X:    -5.2380      Y:     4.0968      Z:     3.6756

  Dipole Moment: (a.u.)
     X:     1.7728      Y:     0.6628      Z:    -1.2983     Total:     2.2951

  Dipole Moment: (Debye)
     X:     4.5061      Y:     1.6846      Z:    -3.2998     Total:     5.8337

  Quadrupole Moment: (Debye Ang)
    XX:   -61.5687     YY:   -56.4607     ZZ:   -66.9431
    XY:     5.3816     XZ:     7.7675     YZ:    -3.3848

  Traceless Quadrupole Moment: (Debye Ang)
    XX:     0.0888     YY:     5.1968     ZZ:    -5.2856
    XY:     5.3816     XZ:     7.7675     YZ:    -3.3848

  Mulliken Charges: (a.u.)
   Center  Symbol    Alpha    Beta     Spin     Total
       1     O     4.35616  4.35616  0.00000 -0.71231
       2     C     2.78194  2.78194  0.00000  0.43612
       3     C     3.27577  3.27577  0.00000 -0.55154
       4     O     4.26967  4.26967  0.00000 -0.53934
       5     H     0.36910  0.36910  0.00000  0.26180
       6     H     0.33700  0.33700  0.00000  0.32599
       7     H     0.37332  0.37332  0.00000  0.25336
       8     C     3.00359  3.00359  0.00000 -0.00718
       9     C     3.22577  3.22577  0.00000 -0.45153
      10     H     0.40492  0.40492  0.00000  0.19017
      11     H     0.39880  0.39880  0.00000  0.20239
      12     C     3.23731  3.23731  0.00000 -0.47462
      13     H     0.39030  0.39030  0.00000  0.21941
      14     H     0.39082  0.39082  0.00000  0.21835
      15     C     3.00048  3.00048  0.00000 -0.00095
      16     H     0.39126  0.39126  0.00000  0.21749
      17     H     0.37667  0.37667  0.00000  0.24666
      18     C     3.25953  3.25953  0.00000 -0.51906
      19     H     0.54878  0.54878  0.00000 -0.09755
      20     H     0.53813  0.53813  0.00000 -0.07626
      21     H     0.31384  0.31384  0.00000  0.37232
      22     H     0.37081  0.37081  0.00000  0.25838
      23     H     0.38605  0.38605  0.00000  0.22790

   Total alpha = 36.00000, Total beta = 36.00000, Total charge = -0.00000


*** PSI4 exiting successfully. Buy a developer a beer!
