    -----------------------------------------------------------------------
          Psi4: An Open-Source Ab Initio Electronic Structure Package
                              Psi4 (no tag) Driver

                          Git: Rev {detached?}  

    J. M. Turney, A. C. Simmonett, R. M. Parrish, E. G. Hohenstein,
    F. A. Evangelista, J. T. Fermann, B. J. Mintz, L. A. Burns, J. J. Wilke,
    M. L. Abrams, N. J. Russ, M. L. Leininger, C. L. Janssen, E. T. Seidl,
    W. D. Allen, H. F. Schaefer, R. A. King, E. F. Valeev, C. D. Sherrill,
    and T. D. Crawford, WIREs Comput. Mol. Sci. 2, 556-565 (2012)
    (doi: 10.1002/wcms.93)

                         Additional Contributions by
    A. E. DePrince, M. Saitow, U. Bozkaya, A. Yu. Sokolov
    -----------------------------------------------------------------------


    Psi4 started on: Tue Jul  5 16:25:43 2016

    Process ID:  30690
    PSI4DATADIR: /export131/home/mjharvey/miniconda3/share
    Memory level set to 256.000 MB

  ==> Input File <==

--------------------------------------------------------------------------
set {
	reference rhf
	basis 6-31G*
}


set_num_threads( 1 )
memory 2 gb

molecule MOL {
0 1

H	 1.459103	 0.593459	 -2.060296
O	 0.618456	 0.433426	 -1.656290
C	 0.702312	 0.627605	 -0.264544
C	 -0.714990	 0.596302	 0.266387
H	 1.153583	 1.589617	 -0.037075
H	 1.296925	 -0.154212	 0.203133
O	 -1.405996	 -0.526611	 -0.195820
H	 -1.257453	 1.468809	 -0.075599
H	 -0.688972	 0.618407	 1.353696
H	 -1.145546	 -1.266044	 0.338426

	symmetry c1
}
set optking {
	frozen_dihedral = ("
		5 3 4 7
	")
}

ee = energy('scf')
oeprop('DIPOLE', 'QUADRUPOLE', 'MULLIKEN_CHARGES')
f=open( 'psi4out.xyz', 'w' )
f.write( "10  " )
f.write( str(ee) + "\n" )
f.write( MOL.save_string_xyz() )
f.close()
--------------------------------------------------------------------------

  Memory set to   2.000 GiB by Python script.

*** tstart() called on cx1-49-4-2.cx1.hpc.ic.ac.uk
*** at Tue Jul  5 16:25:44 2016


         ---------------------------------------------------------
                                   SCF
            by Justin Turney, Rob Parrish, and Andy Simmonett
                              RHF Reference
                        1 Threads,   2000 MiB Core
         ---------------------------------------------------------

  ==> Geometry <==

    Molecular point group: c1
    Full point group: C1

    Geometry (in Angstrom), charge = 0, multiplicity = 1:

       Center              X                  Y                   Z               Mass       
    ------------   -----------------  -----------------  -----------------  -----------------
           H          1.651323374906     0.334439501381    -1.578612171171     1.007825032070
           O          0.810676374906     0.174406501381    -1.174606171171    15.994914619560
           C          0.894532374906     0.368585501381     0.217139828829    12.000000000000
           C         -0.522769625094     0.337282501381     0.748070828829    12.000000000000
           H          1.345803374906     1.330597501381     0.444608828829     1.007825032070
           H          1.489145374906    -0.413231498619     0.684816828829     1.007825032070
           O         -1.213775625094    -0.785630498619     0.285863828829    15.994914619560
           H         -1.065232625094     1.209789501381     0.406084828829     1.007825032070
           H         -0.496751625094     0.359387501381     1.835379828829     1.007825032070
           H         -0.953325625094    -1.525063498619     0.820109828829     1.007825032070

  Running in c1 symmetry.

  Rotational constants: A =      0.51641  B =      0.19251  C =      0.15778 [cm^-1]
  Rotational constants: A =  15481.62523  B =   5771.42313  C =   4730.12197 [MHz]
  Nuclear repulsion =  134.427934729855792

  Charge       = 0
  Multiplicity = 1
  Electrons    = 34
  Nalpha       = 17
  Nbeta        = 17

  ==> Algorithm <==

  SCF Algorithm Type is DF.
  DIIS enabled.
  MOM disabled.
  Fractional occupation disabled.
  Guess Type is CORE.
  Energy threshold   = 1.00e-06
  Density threshold  = 1.00e-06
  Integral threshold = 0.00e+00

  ==> Primary Basis <==

  Basis Set: 6-31G*
    Number of shells: 36
    Number of basis function: 72
    Number of Cartesian functions: 72
    Spherical Harmonics?: false
    Max angular momentum: 2

  ==> Pre-Iterations <==

   -------------------------------------------------------
    Irrep   Nso     Nmo     Nalpha   Nbeta   Ndocc  Nsocc
   -------------------------------------------------------
     A         72      72       0       0       0       0
   -------------------------------------------------------
    Total      72      72      17      17      17       0
   -------------------------------------------------------

 OEINTS: Overlap, kinetic, potential, dipole, and quadrupole integrals
         stored in file 35.

  ==> Integral Setup <==

  ==> DFJK: Density-Fitted J/K Matrices <==

    J tasked:                  Yes
    K tasked:                  Yes
    wK tasked:                  No
    OpenMP threads:              1
    Integrals threads:           1
    Memory (MB):              1430
    Algorithm:                Core
    Integral Cache:           NONE
    Schwarz Cutoff:          1E-12
    Fitting Condition:       1E-12

   => Auxiliary Basis Set <=

  Basis Set: 
    Number of shells: 150
    Number of basis function: 474
    Number of Cartesian functions: 474
    Spherical Harmonics?: false
    Max angular momentum: 3

  Minimum eigenvalue in the overlap matrix is 4.8290100143E-03.
  Using Symmetric Orthogonalization.
  SCF Guess: Core (One-Electron) Hamiltonian.

  ==> Iterations <==

                           Total Energy        Delta E     RMS |[F,P]|

   @DF-RHF iter   1:  -200.39582304132227   -2.00396e+02   8.44152e-02 
   @DF-RHF iter   2:  -190.60251333247055    9.79331e+00   7.73187e-02 DIIS
   @DF-RHF iter   3:  -223.54170846923114   -3.29392e+01   4.05918e-02 DIIS
   @DF-RHF iter   4:  -228.32189643578516   -4.78019e+00   1.48778e-02 DIIS
   @DF-RHF iter   5:  -228.84548431402527   -5.23588e-01   5.54528e-03 DIIS
   @DF-RHF iter   6:  -228.90979147579600   -6.43072e-02   1.39904e-03 DIIS
   @DF-RHF iter   7:  -228.91517591845087   -5.38444e-03   5.24551e-04 DIIS
   @DF-RHF iter   8:  -228.91596354072669   -7.87622e-04   1.23722e-04 DIIS
   @DF-RHF iter   9:  -228.91601837369274   -5.48330e-05   4.06799e-05 DIIS
   @DF-RHF iter  10:  -228.91602457237309   -6.19868e-06   1.13010e-05 DIIS
   @DF-RHF iter  11:  -228.91602508814549   -5.15772e-07   2.00209e-06 DIIS
   @DF-RHF iter  12:  -228.91602511069726   -2.25518e-08   6.09920e-07 DIIS

  ==> Post-Iterations <==

    Orbital Energies (a.u.)
    -----------------------

    Doubly Occupied:                                                      

       1A    -20.552719     2A    -20.551545     3A    -11.272679  
       4A    -11.269565     5A     -1.372600     6A     -1.347031  
       7A     -1.000470     8A     -0.839992     9A     -0.720574  
      10A     -0.671071    11A     -0.655623    12A     -0.594328  
      13A     -0.568632    14A     -0.525603    15A     -0.483365  
      16A     -0.446647    17A     -0.430248  

    Virtual:                                                              

      18A      0.213261    19A      0.249333    20A      0.278752  
      21A      0.299545    22A      0.314771    23A      0.347287  
      24A      0.388282    25A      0.423448    26A      0.438958  
      27A      0.753881    28A      0.807706    29A      0.813557  
      30A      0.824925    31A      0.907492    32A      0.911864  
      33A      1.061035    34A      1.089841    35A      1.121330  
      36A      1.136633    37A      1.169736    38A      1.192159  
      39A      1.210632    40A      1.241580    41A      1.293973  
      42A      1.295858    43A      1.318220    44A      1.421490  
      45A      1.436811    46A      1.636186    47A      1.698207  
      48A      1.740002    49A      1.825789    50A      1.908205  
      51A      1.993800    52A      2.013011    53A      2.097259  
      54A      2.116874    55A      2.221424    56A      2.386002  
      57A      2.433619    58A      2.463708    59A      2.500112  
      60A      2.639215    61A      2.727767    62A      2.747174  
      63A      2.795289    64A      2.841502    65A      2.925513  
      66A      3.046273    67A      3.176381    68A      3.251621  
      69A      4.130121    70A      4.221775    71A      4.632119  
      72A      4.856521  

    Final Occupation by Irrep:
              A 
    DOCC [    17 ]

  Energy converged.

  @DF-RHF Final Energy:  -228.91602511069726

   => Energetics <=

    Nuclear Repulsion Energy =            134.4279347298557923
    One-Electron Energy =                -580.0826590371405018
    Two-Electron Energy =                 216.7386991965873904
    DFT Exchange-Correlation Energy =       0.0000000000000000
    Empirical Dispersion Energy =           0.0000000000000000
    PCM Polarization Energy =               0.0000000000000000
    EFP Energy =                            0.0000000000000000
    Total Energy =                       -228.9160251106973192

    Alert: EFP and PCM quantities not currently incorporated into SCF psivars.

Properties will be evaluated at   0.000000,   0.000000,   0.000000 Bohr
  ==> Properties <==


Properties computed using the SCF density matrix

  Nuclear Dipole Moment: (a.u.)
     X:     1.8458      Y:     1.2119      Z:     2.4448

  Electronic Dipole Moment: (a.u.)
     X:    -0.8076      Y:    -1.0281      Z:    -1.6033

  Dipole Moment: (a.u.)
     X:     1.0381      Y:     0.1839      Z:     0.8415     Total:     1.3489

  Dipole Moment: (Debye)
     X:     2.6387      Y:     0.4673      Z:     2.1388     Total:     3.4286


  Saving occupied orbitals to File 180.

*** tstop() called on cx1-49-4-2.cx1.hpc.ic.ac.uk at Tue Jul  5 16:25:47 2016
Module time:
	user time   =       3.22 seconds =       0.05 minutes
	system time =       0.02 seconds =       0.00 minutes
	total time  =          3 seconds =       0.05 minutes
Total time:
	user time   =       3.22 seconds =       0.05 minutes
	system time =       0.02 seconds =       0.00 minutes
	total time  =          3 seconds =       0.05 minutes


Properties will be evaluated at   0.000000,   0.000000,   0.000000 Bohr

Properties computed using the  density matrix

  Nuclear Dipole Moment: (a.u.)
     X:     1.8458      Y:     1.2119      Z:     2.4448

  Electronic Dipole Moment: (a.u.)
     X:    -0.8076      Y:    -1.0281      Z:    -1.6033

  Dipole Moment: (a.u.)
     X:     1.0381      Y:     0.1839      Z:     0.8415     Total:     1.3489

  Dipole Moment: (Debye)
     X:     2.6387      Y:     0.4673      Z:     2.1388     Total:     3.4286

  Quadrupole Moment: (Debye Ang)
    XX:   -23.7858     YY:   -22.1787     ZZ:   -23.5982
    XY:     0.2180     XZ:    -2.9462     YZ:    -2.2135

  Traceless Quadrupole Moment: (Debye Ang)
    XX:    -0.5982     YY:     1.0089     ZZ:    -0.4106
    XY:     0.2180     XZ:    -2.9462     YZ:    -2.2135

  Mulliken Charges: (a.u.)
   Center  Symbol    Alpha    Beta     Spin     Total
       1     H     0.28128  0.28128  0.00000  0.43745
       2     O     4.36167  4.36167  0.00000 -0.72335
       3     C     3.00582  3.00582  0.00000 -0.01163
       4     C     3.00392  3.00392  0.00000 -0.00783
       5     H     0.43065  0.43065  0.00000  0.13869
       6     H     0.43432  0.43432  0.00000  0.13136
       7     O     4.35675  4.35675  0.00000 -0.71351
       8     H     0.41037  0.41037  0.00000  0.17927
       9     H     0.43186  0.43186  0.00000  0.13629
      10     H     0.28337  0.28337  0.00000  0.43327

   Total alpha = 17.00000, Total beta = 17.00000, Total charge =  0.00000


*** PSI4 exiting successfully. Buy a developer a beer!
