    -----------------------------------------------------------------------
          Psi4: An Open-Source Ab Initio Electronic Structure Package
                              Psi4 (no tag) Driver

                          Git: Rev {detached?}  

    J. M. Turney, A. C. Simmonett, R. M. Parrish, E. G. Hohenstein,
    F. A. Evangelista, J. T. Fermann, B. J. Mintz, L. A. Burns, J. J. Wilke,
    M. L. Abrams, N. J. Russ, M. L. Leininger, C. L. Janssen, E. T. Seidl,
    W. D. Allen, H. F. Schaefer, R. A. King, E. F. Valeev, C. D. Sherrill,
    and T. D. Crawford, WIREs Comput. Mol. Sci. 2, 556-565 (2012)
    (doi: 10.1002/wcms.93)

                         Additional Contributions by
    A. E. DePrince, M. Saitow, U. Bozkaya, A. Yu. Sokolov
    -----------------------------------------------------------------------


    Psi4 started on: Tue Jul  5 16:23:31 2016

    Process ID:  26161
    PSI4DATADIR: /export131/home/mjharvey/miniconda3/share
    Memory level set to 256.000 MB

  ==> Input File <==

--------------------------------------------------------------------------
set {
	reference rhf
	basis 6-31G*
}


set_num_threads( 1 )
memory 2 gb

molecule MOL {
0 1

H	 -0.216825	 0.021369	 -3.357402
C	 0.374198	 0.036393	 -2.447010
C	 -0.521757	 -0.028637	 -1.217342
H	 0.969602	 0.942322	 -2.434777
H	 1.053364	 -0.811668	 -2.481329
N	 0.263400	 0.031178	 0.000000
H	 -1.199035	 0.820290	 -1.219355
H	 -1.147901	 -0.924895	 -1.265384
C	 -0.521757	 -0.028637	 1.217342
H	 0.935769	 -0.712709	 0.000000
C	 -1.328978	 1.248496	 1.408059
H	 -1.198404	 -0.874215	 1.136502
H	 0.095710	 -0.209210	 2.102650
H	 -1.978564	 1.417117	 0.556609
H	 -1.938843	 1.190375	 2.304181
H	 -0.676561	 2.112074	 1.509229

	symmetry c1
}
ee = energy('scf')
oeprop('DIPOLE', 'QUADRUPOLE', 'MULLIKEN_CHARGES')
f=open( 'psi4out.xyz', 'w' )
f.write( "16  " )
f.write( str(ee) + "\n" )
f.write( MOL.save_string_xyz() )
f.close()
--------------------------------------------------------------------------

  Memory set to   2.000 GiB by Python script.

*** tstart() called on cx1-3-1-3.cx1.hpc.ic.ac.uk
*** at Tue Jul  5 16:23:32 2016


         ---------------------------------------------------------
                                   SCF
            by Justin Turney, Rob Parrish, and Andy Simmonett
                              RHF Reference
                        1 Threads,   2000 MiB Core
         ---------------------------------------------------------

  ==> Geometry <==

    Molecular point group: c1
    Full point group: C1

    Geometry (in Angstrom), charge = 0, multiplicity = 1:

       Center              X                  Y                   Z               Mass       
    ------------   -----------------  -----------------  -----------------  -----------------
           H          0.133901371987    -0.227122944392    -3.143401293217     1.007825032070
           C          0.724924371987    -0.212098944392    -2.233009293217    12.000000000000
           C         -0.171030628013    -0.277128944392    -1.003341293217    12.000000000000
           H          1.320328371987     0.693830055608    -2.220776293217     1.007825032070
           H          1.404090371987    -1.060159944392    -2.267328293217     1.007825032070
           N          0.614126371987    -0.217313944392     0.214000706783    14.003074004780
           H         -0.848308628013     0.571798055608    -1.005354293217     1.007825032070
           H         -0.797174628013    -1.173386944392    -1.051383293217     1.007825032070
           C         -0.171030628013    -0.277128944392     1.431342706783    12.000000000000
           H          1.286495371987    -0.961200944392     0.214000706783     1.007825032070
           C         -0.978251628013     1.000004055608     1.622059706783    12.000000000000
           H         -0.847677628013    -1.122706944392     1.350502706783     1.007825032070
           H          0.446436371987    -0.457701944392     2.316650706783     1.007825032070
           H         -1.627837628013     1.168625055608     0.770609706783     1.007825032070
           H         -1.588116628013     0.941883055608     2.518181706783     1.007825032070
           H         -0.325834628013     1.863582055608     1.723229706783     1.007825032070

  Running in c1 symmetry.

  Rotational constants: A =      0.41266  B =      0.08330  C =      0.07659 [cm^-1]
  Rotational constants: A =  12371.29770  B =   2497.40727  C =   2296.03261 [MHz]
  Nuclear repulsion =  192.196505411177469

  Charge       = 0
  Multiplicity = 1
  Electrons    = 42
  Nalpha       = 21
  Nbeta        = 21

  ==> Algorithm <==

  SCF Algorithm Type is DF.
  DIIS enabled.
  MOM disabled.
  Fractional occupation disabled.
  Guess Type is CORE.
  Energy threshold   = 1.00e-06
  Density threshold  = 1.00e-06
  Integral threshold = 0.00e+00

  ==> Primary Basis <==

  Basis Set: 6-31G*
    Number of shells: 52
    Number of basis function: 97
    Number of Cartesian functions: 97
    Spherical Harmonics?: false
    Max angular momentum: 2

  ==> Pre-Iterations <==

   -------------------------------------------------------
    Irrep   Nso     Nmo     Nalpha   Nbeta   Ndocc  Nsocc
   -------------------------------------------------------
     A         97      97       0       0       0       0
   -------------------------------------------------------
    Total      97      97      21      21      21       0
   -------------------------------------------------------

 OEINTS: Overlap, kinetic, potential, dipole, and quadrupole integrals
         stored in file 35.

  ==> Integral Setup <==

  ==> DFJK: Density-Fitted J/K Matrices <==

    J tasked:                  Yes
    K tasked:                  Yes
    wK tasked:                  No
    OpenMP threads:              1
    Integrals threads:           1
    Memory (MB):              1430
    Algorithm:                Core
    Integral Cache:           NONE
    Schwarz Cutoff:          1E-12
    Fitting Condition:       1E-12

   => Auxiliary Basis Set <=

  Basis Set: 
    Number of shells: 219
    Number of basis function: 680
    Number of Cartesian functions: 680
    Spherical Harmonics?: false
    Max angular momentum: 3

  Minimum eigenvalue in the overlap matrix is 4.5108431494E-03.
  Using Symmetric Orthogonalization.
  SCF Guess: Core (One-Electron) Hamiltonian.

  ==> Iterations <==

                           Total Energy        Delta E     RMS |[F,P]|

   @DF-RHF iter   1:  -159.21232682790131   -1.59212e+02   8.07596e-02 
   @DF-RHF iter   2:  -140.53472882198102    1.86776e+01   6.61210e-02 DIIS
   @DF-RHF iter   3:  -184.36980623122085   -4.38351e+01   4.73023e-02 DIIS
   @DF-RHF iter   4:  -195.67252750402329   -1.13027e+01   4.51862e-02 DIIS
   @DF-RHF iter   5:  -212.07929474387120   -1.64068e+01   6.55817e-03 DIIS
   @DF-RHF iter   6:  -212.27567681402613   -1.96382e-01   2.45867e-03 DIIS
   @DF-RHF iter   7:  -212.30520319622562   -2.95264e-02   7.68683e-04 DIIS
   @DF-RHF iter   8:  -212.30873427443558   -3.53108e-03   2.35110e-04 DIIS
   @DF-RHF iter   9:  -212.30907265830254   -3.38384e-04   8.60957e-05 DIIS
   @DF-RHF iter  10:  -212.30911331377061   -4.06555e-05   3.62432e-05 DIIS
   @DF-RHF iter  11:  -212.30912166896948   -8.35520e-06   9.04787e-06 DIIS
   @DF-RHF iter  12:  -212.30912229306509   -6.24096e-07   1.80130e-06 DIIS
   @DF-RHF iter  13:  -212.30912232408301   -3.10179e-08   3.81934e-07 DIIS

  ==> Post-Iterations <==

    Orbital Energies (a.u.)
    -----------------------

    Doubly Occupied:                                                      

       1A    -15.533237     2A    -11.240978     3A    -11.240490  
       4A    -11.208557     5A    -11.204512     6A     -1.205987  
       7A     -1.023560     8A     -0.966690     9A     -0.847573  
      10A     -0.799713    11A     -0.665566    12A     -0.625475  
      13A     -0.615490    14A     -0.584896    15A     -0.537506  
      16A     -0.526055    17A     -0.508207    18A     -0.494304  
      19A     -0.483930    20A     -0.465909    21A     -0.357572  

    Virtual:                                                              

      22A      0.232693    23A      0.257830    24A      0.262864  
      25A      0.292916    26A      0.320831    27A      0.322141  
      28A      0.328229    29A      0.333040    30A      0.345285  
      31A      0.350703    32A      0.386659    33A      0.420430  
      34A      0.426485    35A      0.433967    36A      0.466484  
      37A      0.707246    38A      0.728106    39A      0.750290  
      40A      0.762125    41A      0.767023    42A      0.809638  
      43A      0.847308    44A      0.905564    45A      0.949327  
      46A      0.949854    47A      0.970015    48A      1.038129  
      49A      1.093206    50A      1.136368    51A      1.147529  
      52A      1.161944    53A      1.174164    54A      1.180943  
      55A      1.192237    56A      1.206057    57A      1.226513  
      58A      1.235063    59A      1.248042    60A      1.273736  
      61A      1.294029    62A      1.332232    63A      1.352901  
      64A      1.560805    65A      1.573614    66A      1.693895  
      67A      1.727525    68A      1.860619    69A      1.881773  
      70A      1.914518    71A      2.024540    72A      2.147039  
      73A      2.185291    74A      2.261655    75A      2.279851  
      76A      2.289500    77A      2.326109    78A      2.368300  
      79A      2.442192    80A      2.530031    81A      2.540280  
      82A      2.595652    83A      2.651135    84A      2.668301  
      85A      2.702003    86A      2.741192    87A      2.782248  
      88A      2.830141    89A      2.971021    90A      3.031649  
      91A      3.126496    92A      3.211774    93A      4.354617  
      94A      4.628416    95A      4.643719    96A      4.831042  
      97A      4.903593  

    Final Occupation by Irrep:
              A 
    DOCC [    21 ]

  Energy converged.

  @DF-RHF Final Energy:  -212.30912232408301

   => Energetics <=

    Nuclear Repulsion Energy =            192.1965054111774691
    One-Electron Energy =                -666.7387525150368219
    Two-Electron Energy =                 262.2331247797759488
    DFT Exchange-Correlation Energy =       0.0000000000000000
    Empirical Dispersion Energy =           0.0000000000000000
    PCM Polarization Energy =               0.0000000000000000
    EFP Energy =                            0.0000000000000000
    Total Energy =                       -212.3091223240834324

    Alert: EFP and PCM quantities not currently incorporated into SCF psivars.

Properties will be evaluated at   0.000000,   0.000000,   0.000000 Bohr
  ==> Properties <==


Properties computed using the SCF density matrix

  Nuclear Dipole Moment: (a.u.)
     X:    -1.3552      Y:     0.2232      Z:    -0.7460

  Electronic Dipole Moment: (a.u.)
     X:     1.2131      Y:    -0.6038      Z:     0.7478

  Dipole Moment: (a.u.)
     X:    -0.1421      Y:    -0.3805      Z:     0.0018     Total:     0.4062

  Dipole Moment: (Debye)
     X:    -0.3612      Y:    -0.9673      Z:     0.0045     Total:     1.0325


  Saving occupied orbitals to File 180.

*** tstop() called on cx1-3-1-3.cx1.hpc.ic.ac.uk at Tue Jul  5 16:23:37 2016
Module time:
	user time   =       4.95 seconds =       0.08 minutes
	system time =       0.04 seconds =       0.00 minutes
	total time  =          5 seconds =       0.08 minutes
Total time:
	user time   =       4.95 seconds =       0.08 minutes
	system time =       0.04 seconds =       0.00 minutes
	total time  =          5 seconds =       0.08 minutes


Properties will be evaluated at   0.000000,   0.000000,   0.000000 Bohr

Properties computed using the  density matrix

  Nuclear Dipole Moment: (a.u.)
     X:    -1.3552      Y:     0.2232      Z:    -0.7460

  Electronic Dipole Moment: (a.u.)
     X:     1.2131      Y:    -0.6038      Z:     0.7478

  Dipole Moment: (a.u.)
     X:    -0.1421      Y:    -0.3805      Z:     0.0018     Total:     0.4062

  Dipole Moment: (Debye)
     X:    -0.3612      Y:    -0.9673      Z:     0.0045     Total:     1.0325

  Quadrupole Moment: (Debye Ang)
    XX:   -34.6394     YY:   -33.9174     ZZ:   -33.0370
    XY:    -1.7751     XZ:     0.3625     YZ:    -0.4320

  Traceless Quadrupole Moment: (Debye Ang)
    XX:    -0.7748     YY:    -0.0528     ZZ:     0.8276
    XY:    -1.7751     XZ:     0.3625     YZ:    -0.4320

  Mulliken Charges: (a.u.)
   Center  Symbol    Alpha    Beta     Spin     Total
       1     H     0.42030  0.42030  0.00000  0.15941
       2     C     3.24086  3.24086  0.00000 -0.48171
       3     C     3.05847  3.05847  0.00000 -0.11694
       4     H     0.41179  0.41179  0.00000  0.17641
       5     H     0.42493  0.42493  0.00000  0.15015
       6     N     3.84692  3.84692  0.00000 -0.69385
       7     H     0.41817  0.41817  0.00000  0.16367
       8     H     0.43560  0.43560  0.00000  0.12880
       9     C     3.06003  3.06003  0.00000 -0.12006
      10     H     0.33340  0.33340  0.00000  0.33321
      11     C     3.23950  3.23950  0.00000 -0.47900
      12     H     0.43460  0.43460  0.00000  0.13080
      13     H     0.41847  0.41847  0.00000  0.16307
      14     H     0.42026  0.42026  0.00000  0.15948
      15     H     0.42219  0.42219  0.00000  0.15561
      16     H     0.41452  0.41452  0.00000  0.17097

   Total alpha = 21.00000, Total beta = 21.00000, Total charge =  0.00000


*** PSI4 exiting successfully. Buy a developer a beer!
