    -----------------------------------------------------------------------
          Psi4: An Open-Source Ab Initio Electronic Structure Package
                              Psi4 (no tag) Driver

                          Git: Rev {detached?}  

    J. M. Turney, A. C. Simmonett, R. M. Parrish, E. G. Hohenstein,
    F. A. Evangelista, J. T. Fermann, B. J. Mintz, L. A. Burns, J. J. Wilke,
    M. L. Abrams, N. J. Russ, M. L. Leininger, C. L. Janssen, E. T. Seidl,
    W. D. Allen, H. F. Schaefer, R. A. King, E. F. Valeev, C. D. Sherrill,
    and T. D. Crawford, WIREs Comput. Mol. Sci. 2, 556-565 (2012)
    (doi: 10.1002/wcms.93)

                         Additional Contributions by
    A. E. DePrince, M. Saitow, U. Bozkaya, A. Yu. Sokolov
    -----------------------------------------------------------------------


    Psi4 started on: Tue Jul  5 16:44:14 2016

    Process ID:  22997
    PSI4DATADIR: /export131/home/mjharvey/miniconda3/share
    Memory level set to 256.000 MB

  ==> Input File <==

--------------------------------------------------------------------------
set {
	reference rhf
	basis 6-31G*
}


set_num_threads( 1 )
memory 2 gb

molecule MOL {
0 1

H	 -3.892951	 0.981613	 -0.358725
C	 -3.196921	 0.361773	 0.172313
C	 -2.076860	 -0.007332	 -0.404944
H	 -3.439953	 0.057760	 1.173024
O	 -1.180634	 -0.819263	 0.215062
H	 -1.811520	 0.292194	 -1.403480
C	 0.051604	 -1.018856	 -0.387932
C	 1.043764	 0.054862	 -0.001873
H	 -0.017620	 -1.041351	 -1.469781
H	 0.437898	 -1.966374	 -0.042284
F	 1.148295	 0.104415	 1.318136
F	 2.247977	 -0.190889	 -0.491064
F	 0.673696	 1.245901	 -0.424799

	symmetry c1
}
set optking {
	frozen_dihedral = ("
		3 5 7 9,
		6 3 2 1,
		6 3 5 7
	")
}

ee = energy('scf')
oeprop('DIPOLE', 'QUADRUPOLE', 'MULLIKEN_CHARGES')
f=open( 'psi4out.xyz', 'w' )
f.write( "13  " )
f.write( str(ee) + "\n" )
f.write( MOL.save_string_xyz() )
f.close()
--------------------------------------------------------------------------

  Memory set to   2.000 GiB by Python script.

*** tstart() called on cx1-3-14-4.cx1.hpc.ic.ac.uk
*** at Tue Jul  5 16:44:14 2016


         ---------------------------------------------------------
                                   SCF
            by Justin Turney, Rob Parrish, and Andy Simmonett
                              RHF Reference
                        1 Threads,   2000 MiB Core
         ---------------------------------------------------------

  ==> Geometry <==

    Molecular point group: c1
    Full point group: C1

    Geometry (in Angstrom), charge = 0, multiplicity = 1:

       Center              X                  Y                   Z               Mass       
    ------------   -----------------  -----------------  -----------------  -----------------
           H         -3.889026390605     0.982253248765    -0.370591472880     1.007825032070
           C         -3.192996390605     0.362413248765     0.160446527120    12.000000000000
           C         -2.072935390605    -0.006691751235    -0.416810472880    12.000000000000
           H         -3.436028390605     0.058400248765     1.161157527120     1.007825032070
           O         -1.176709390605    -0.818622751235     0.203195527120    15.994914619560
           H         -1.807595390605     0.292834248765    -1.415346472880     1.007825032070
           C          0.055528609395    -1.018215751235    -0.399798472880    12.000000000000
           C          1.047688609395     0.055502248765    -0.013739472880    12.000000000000
           H         -0.013695390605    -1.040710751235    -1.481647472880     1.007825032070
           H          0.441822609395    -1.965733751235    -0.054150472880     1.007825032070
           F          1.152219609395     0.105055248765     1.306269527120    18.998403224000
           F          2.251901609395    -0.190248751235    -0.502930472880    18.998403224000
           F          0.677620609395     1.246541248765    -0.436665472880    18.998403224000

  Running in c1 symmetry.

  Rotational constants: A =      0.14965  B =      0.04000  C =      0.03904 [cm^-1]
  Rotational constants: A =   4486.25865  B =   1199.15077  C =   1170.26059 [MHz]
  Nuclear repulsion =  413.791508538925370

  Charge       = 0
  Multiplicity = 1
  Electrons    = 64
  Nalpha       = 32
  Nbeta        = 32

  ==> Algorithm <==

  SCF Algorithm Type is DF.
  DIIS enabled.
  MOM disabled.
  Fractional occupation disabled.
  Guess Type is CORE.
  Energy threshold   = 1.00e-06
  Density threshold  = 1.00e-06
  Integral threshold = 0.00e+00

  ==> Primary Basis <==

  Basis Set: 6-31G*
    Number of shells: 58
    Number of basis function: 130
    Number of Cartesian functions: 130
    Spherical Harmonics?: false
    Max angular momentum: 2

  ==> Pre-Iterations <==

   -------------------------------------------------------
    Irrep   Nso     Nmo     Nalpha   Nbeta   Ndocc  Nsocc
   -------------------------------------------------------
     A        130     130       0       0       0       0
   -------------------------------------------------------
    Total     130     130      32      32      32       0
   -------------------------------------------------------

 OEINTS: Overlap, kinetic, potential, dipole, and quadrupole integrals
         stored in file 35.

  ==> Integral Setup <==

  ==> DFJK: Density-Fitted J/K Matrices <==

    J tasked:                  Yes
    K tasked:                  Yes
    wK tasked:                  No
    OpenMP threads:              1
    Integrals threads:           1
    Memory (MB):              1430
    Algorithm:                Core
    Integral Cache:           NONE
    Schwarz Cutoff:          1E-12
    Fitting Condition:       1E-12

   => Auxiliary Basis Set <=

  Basis Set: 
    Number of shells: 237
    Number of basis function: 773
    Number of Cartesian functions: 773
    Spherical Harmonics?: false
    Max angular momentum: 3

  Minimum eigenvalue in the overlap matrix is 1.8879808166E-03.
  Using Symmetric Orthogonalization.
  SCF Guess: Core (One-Electron) Hamiltonian.

  ==> Iterations <==

                           Total Energy        Delta E     RMS |[F,P]|

   @DF-RHF iter   1:  -439.52904854032460   -4.39529e+02   7.41554e-02 
   @DF-RHF iter   2:  -175.77793960094704    2.63751e+02   9.74332e-02 DIIS
   @DF-RHF iter   3:  -490.71383218728766   -3.14936e+02   3.98256e-02 DIIS
   @DF-RHF iter   4:  -404.96615511023680    8.57477e+01   7.69904e-02 DIIS
   @DF-RHF iter   5:  -519.29815239863069   -1.14332e+02   2.13809e-02 DIIS
   @DF-RHF iter   6:  -526.78399048047800   -7.48584e+00   1.02991e-02 DIIS
   @DF-RHF iter   7:  -527.48132189566877   -6.97331e-01   2.40803e-03 DIIS
   @DF-RHF iter   8:  -527.52044641972248   -3.91245e-02   1.16995e-03 DIIS
   @DF-RHF iter   9:  -527.53177958782362   -1.13332e-02   5.59492e-04 DIIS
   @DF-RHF iter  10:  -527.53445051957533   -2.67093e-03   2.71429e-04 DIIS
   @DF-RHF iter  11:  -527.53528840702575   -8.37887e-04   5.49454e-05 DIIS
   @DF-RHF iter  12:  -527.53532352994898   -3.51229e-05   1.96921e-05 DIIS
   @DF-RHF iter  13:  -527.53533026370906   -6.73376e-06   8.28849e-06 DIIS
   @DF-RHF iter  14:  -527.53533134980808   -1.08610e-06   2.12101e-06 DIIS
   @DF-RHF iter  15:  -527.53533146133441   -1.11526e-07   7.86107e-07 DIIS

  ==> Post-Iterations <==

    Orbital Energies (a.u.)
    -----------------------

    Doubly Occupied:                                                      

       1A    -26.346787     2A    -26.345955     3A    -26.335180  
       4A    -20.608888     5A    -11.502990     6A    -11.318929  
       7A    -11.299551     8A    -11.215977     9A     -1.741773  
      10A     -1.642594    11A     -1.634614    12A     -1.438409  
      13A     -1.084206    14A     -1.016567    15A     -0.925145  
      16A     -0.835229    17A     -0.831618    18A     -0.821922  
      19A     -0.791997    20A     -0.720264    21A     -0.711993  
      22A     -0.697714    23A     -0.675695    24A     -0.661089  
      25A     -0.653848    26A     -0.642411    27A     -0.632449  
      28A     -0.584350    29A     -0.563520    30A     -0.523593  
      31A     -0.514326    32A     -0.351687  

    Virtual:                                                              

      33A      0.190835    34A      0.235553    35A      0.271975  
      36A      0.280460    37A      0.295191    38A      0.315397  
      39A      0.344173    40A      0.410494    41A      0.413765  
      42A      0.452347    43A      0.475313    44A      0.508035  
      45A      0.516135    46A      0.689948    47A      0.700241  
      48A      0.712617    49A      0.740124    50A      0.757282  
      51A      0.770087    52A      0.807778    53A      0.832140  
      54A      0.877175    55A      0.909819    56A      0.923753  
      57A      0.979896    58A      1.080685    59A      1.099344  
      60A      1.129686    61A      1.150282    62A      1.161648  
      63A      1.203734    64A      1.238161    65A      1.275615  
      66A      1.329247    67A      1.360791    68A      1.368273  
      69A      1.409947    70A      1.428659    71A      1.453022  
      72A      1.469867    73A      1.592777    74A      1.612133  
      75A      1.630515    76A      1.637937    77A      1.666090  
      78A      1.676221    79A      1.691955    80A      1.701631  
      81A      1.748336    82A      1.799452    83A      1.859406  
      84A      1.906674    85A      1.933078    86A      1.970096  
      87A      2.016141    88A      2.030448    89A      2.112833  
      90A      2.121406    91A      2.138063    92A      2.148723  
      93A      2.231456    94A      2.244996    95A      2.288069  
      96A      2.295712    97A      2.314518    98A      2.322273  
      99A      2.367255   100A      2.395607   101A      2.413576  
     102A      2.423305   103A      2.499815   104A      2.527499  
     105A      2.555363   106A      2.593023   107A      2.653924  
     108A      2.669316   109A      2.752282   110A      2.805742  
     111A      2.861326   112A      2.902451   113A      2.995814  
     114A      3.098610   115A      3.155915   116A      3.174579  
     117A      3.220994   118A      3.293089   119A      3.418449  
     120A      3.423473   121A      3.448607   122A      3.480564  
     123A      4.363131   124A      4.542028   125A      4.619159  
     126A      4.701888   127A      4.882765   128A      4.931642  
     129A      5.165008   130A      5.745460  

    Final Occupation by Irrep:
              A 
    DOCC [    32 ]

  Energy converged.

  @DF-RHF Final Energy:  -527.53533146133441

   => Energetics <=

    Nuclear Repulsion Energy =            413.7915085389253704
    One-Electron Energy =               -1551.3109936104613098
    Two-Electron Energy =                 609.9841536102017017
    DFT Exchange-Correlation Energy =       0.0000000000000000
    Empirical Dispersion Energy =           0.0000000000000000
    PCM Polarization Energy =               0.0000000000000000
    EFP Energy =                            0.0000000000000000
    Total Energy =                       -527.5353314613341809

    Alert: EFP and PCM quantities not currently incorporated into SCF psivars.

Properties will be evaluated at   0.000000,   0.000000,   0.000000 Bohr
  ==> Properties <==


Properties computed using the SCF density matrix

  Nuclear Dipole Moment: (a.u.)
     X:   -12.0164      Y:    -2.6678      Z:    -2.3704

  Electronic Dipole Moment: (a.u.)
     X:    11.7782      Y:     2.2873      Z:     1.6285

  Dipole Moment: (a.u.)
     X:    -0.2382      Y:    -0.3805      Z:    -0.7419     Total:     0.8672

  Dipole Moment: (Debye)
     X:    -0.6055      Y:    -0.9672      Z:    -1.8858     Total:     2.2042


  Saving occupied orbitals to File 180.

*** tstop() called on cx1-3-14-4.cx1.hpc.ic.ac.uk at Tue Jul  5 16:44:24 2016
Module time:
	user time   =       9.49 seconds =       0.16 minutes
	system time =       0.06 seconds =       0.00 minutes
	total time  =         10 seconds =       0.17 minutes
Total time:
	user time   =       9.49 seconds =       0.16 minutes
	system time =       0.06 seconds =       0.00 minutes
	total time  =         10 seconds =       0.17 minutes


Properties will be evaluated at   0.000000,   0.000000,   0.000000 Bohr

Properties computed using the  density matrix

  Nuclear Dipole Moment: (a.u.)
     X:   -12.0164      Y:    -2.6678      Z:    -2.3704

  Electronic Dipole Moment: (a.u.)
     X:    11.7782      Y:     2.2873      Z:     1.6285

  Dipole Moment: (a.u.)
     X:    -0.2382      Y:    -0.3805      Z:    -0.7419     Total:     0.8672

  Dipole Moment: (Debye)
     X:    -0.6055      Y:    -0.9672      Z:    -1.8858     Total:     2.2042

  Quadrupole Moment: (Debye Ang)
    XX:   -45.7848     YY:   -44.3200     ZZ:   -43.4102
    XY:    -3.1583     XZ:     0.8623     YZ:     0.5331

  Traceless Quadrupole Moment: (Debye Ang)
    XX:    -1.2798     YY:     0.1850     ZZ:     1.0948
    XY:    -3.1583     XZ:     0.8623     YZ:     0.5331

  Mulliken Charges: (a.u.)
   Center  Symbol    Alpha    Beta     Spin     Total
       1     H     0.40704  0.40704  0.00000  0.18592
       2     C     3.23531  3.23531  0.00000 -0.47062
       3     C     2.89575  2.89575  0.00000  0.20849
       4     H     0.40159  0.40159  0.00000  0.19683
       5     O     4.30052  4.30052  0.00000 -0.60105
       6     H     0.40685  0.40685  0.00000  0.18630
       7     C     3.06318  3.06318  0.00000 -0.12636
       8     C     2.45647  2.45647  0.00000  1.08705
       9     H     0.40718  0.40718  0.00000  0.18564
      10     H     0.38963  0.38963  0.00000  0.22075
      11     F     4.67913  4.67913  0.00000 -0.35827
      12     F     4.68045  4.68045  0.00000 -0.36091
      13     F     4.67689  4.67689  0.00000 -0.35379

   Total alpha = 32.00000, Total beta = 32.00000, Total charge =  0.00000


*** PSI4 exiting successfully. Buy a developer a beer!
