    -----------------------------------------------------------------------
          Psi4: An Open-Source Ab Initio Electronic Structure Package
                              Psi4 (no tag) Driver

                          Git: Rev {detached?}  

    J. M. Turney, A. C. Simmonett, R. M. Parrish, E. G. Hohenstein,
    F. A. Evangelista, J. T. Fermann, B. J. Mintz, L. A. Burns, J. J. Wilke,
    M. L. Abrams, N. J. Russ, M. L. Leininger, C. L. Janssen, E. T. Seidl,
    W. D. Allen, H. F. Schaefer, R. A. King, E. F. Valeev, C. D. Sherrill,
    and T. D. Crawford, WIREs Comput. Mol. Sci. 2, 556-565 (2012)
    (doi: 10.1002/wcms.93)

                         Additional Contributions by
    A. E. DePrince, M. Saitow, U. Bozkaya, A. Yu. Sokolov
    -----------------------------------------------------------------------


    Psi4 started on: Tue Jul  5 16:25:34 2016

    Process ID:  20180
    PSI4DATADIR: /export131/home/mjharvey/miniconda3/share
    Memory level set to 256.000 MB

  ==> Input File <==

--------------------------------------------------------------------------
set {
	reference rhf
	basis 6-31G*
}


set_num_threads( 1 )
memory 2 gb

molecule MOL {
0 1

H	 -0.814047	 1.572644	 -0.421691
O	 0.055946	 1.300438	 -0.164479
C	 0.004957	 -0.004114	 0.366649
C	 1.201664	 -0.828089	 -0.095740
C	 -1.317755	 -0.601827	 -0.081511
H	 0.013527	 0.048298	 1.454924
H	 1.216388	 -0.895289	 -1.178704
H	 2.135132	 -0.372895	 0.226467
H	 1.166770	 -1.832878	 0.313827
H	 -1.355732	 -0.658248	 -1.164429
H	 -2.141614	 0.017037	 0.254547
H	 -1.447303	 -1.600817	 0.322594

	symmetry c1
}
ee = energy('scf')
oeprop('DIPOLE', 'QUADRUPOLE', 'MULLIKEN_CHARGES')
f=open( 'psi4out.xyz', 'w' )
f.write( "12  " )
f.write( str(ee) + "\n" )
f.write( MOL.save_string_xyz() )
f.close()
--------------------------------------------------------------------------

  Memory set to   2.000 GiB by Python script.

*** tstart() called on cx1-3-15-4.cx1.hpc.ic.ac.uk
*** at Tue Jul  5 16:25:34 2016


         ---------------------------------------------------------
                                   SCF
            by Justin Turney, Rob Parrish, and Andy Simmonett
                              RHF Reference
                        1 Threads,   2000 MiB Core
         ---------------------------------------------------------

  ==> Geometry <==

    Molecular point group: c1
    Full point group: C1

    Geometry (in Angstrom), charge = 0, multiplicity = 1:

       Center              X                  Y                   Z               Mass       
    ------------   -----------------  -----------------  -----------------  -----------------
           H         -0.786153140628     1.575295444199    -0.412499434088     1.007825032070
           O          0.083839859372     1.303089444199    -0.155287434088    15.994914619560
           C          0.032850859372    -0.001462555801     0.375840565912    12.000000000000
           C          1.229557859372    -0.825437555801    -0.086548434088    12.000000000000
           C         -1.289861140628    -0.599175555801    -0.072319434088    12.000000000000
           H          0.041420859372     0.050949444199     1.464115565912     1.007825032070
           H          1.244281859372    -0.892637555801    -1.169512434088     1.007825032070
           H          2.163025859372    -0.370243555801     0.235658565912     1.007825032070
           H          1.194663859372    -1.830226555801     0.323018565912     1.007825032070
           H         -1.327838140628    -0.655596555801    -1.155237434088     1.007825032070
           H         -2.113720140628     0.019688444199     0.263738565912     1.007825032070
           H         -1.419409140628    -1.598165555801     0.331785565912     1.007825032070

  Running in c1 symmetry.

  Rotational constants: A =      0.30409  B =      0.26300  C =      0.16142 [cm^-1]
  Rotational constants: A =   9116.28411  B =   7884.52548  C =   4839.18625 [MHz]
  Nuclear repulsion =  135.800503168429742

  Charge       = 0
  Multiplicity = 1
  Electrons    = 34
  Nalpha       = 17
  Nbeta        = 17

  ==> Algorithm <==

  SCF Algorithm Type is DF.
  DIIS enabled.
  MOM disabled.
  Fractional occupation disabled.
  Guess Type is CORE.
  Energy threshold   = 1.00e-06
  Density threshold  = 1.00e-06
  Integral threshold = 0.00e+00

  ==> Primary Basis <==

  Basis Set: 6-31G*
    Number of shells: 40
    Number of basis function: 76
    Number of Cartesian functions: 76
    Spherical Harmonics?: false
    Max angular momentum: 2

  ==> Pre-Iterations <==

   -------------------------------------------------------
    Irrep   Nso     Nmo     Nalpha   Nbeta   Ndocc  Nsocc
   -------------------------------------------------------
     A         76      76       0       0       0       0
   -------------------------------------------------------
    Total      76      76      17      17      17       0
   -------------------------------------------------------

 OEINTS: Overlap, kinetic, potential, dipole, and quadrupole integrals
         stored in file 35.

  ==> Integral Setup <==

  ==> DFJK: Density-Fitted J/K Matrices <==

    J tasked:                  Yes
    K tasked:                  Yes
    wK tasked:                  No
    OpenMP threads:              1
    Integrals threads:           1
    Memory (MB):              1430
    Algorithm:                Core
    Integral Cache:           NONE
    Schwarz Cutoff:          1E-12
    Fitting Condition:       1E-12

   => Auxiliary Basis Set <=

  Basis Set: 
    Number of shells: 168
    Number of basis function: 524
    Number of Cartesian functions: 524
    Spherical Harmonics?: false
    Max angular momentum: 3

  Minimum eigenvalue in the overlap matrix is 4.0724834906E-03.
  Using Symmetric Orthogonalization.
  SCF Guess: Core (One-Electron) Hamiltonian.

  ==> Iterations <==

                           Total Energy        Delta E     RMS |[F,P]|

   @DF-RHF iter   1:  -158.69759852042225   -1.58698e+02   8.53992e-02 
   @DF-RHF iter   2:  -154.73785584286506    3.95974e+00   5.65338e-02 DIIS
   @DF-RHF iter   3:  -170.59604908221840   -1.58582e+01   6.56462e-02 DIIS
   @DF-RHF iter   4:  -190.85399496927025   -2.02579e+01   2.80699e-02 DIIS
   @DF-RHF iter   5:  -192.33909912235319   -1.48510e+00   1.55624e-02 DIIS
   @DF-RHF iter   6:  -192.98908172541664   -6.49983e-01   6.17844e-03 DIIS
   @DF-RHF iter   7:  -193.10401565346612   -1.14934e-01   1.35643e-03 DIIS
   @DF-RHF iter   8:  -193.10998658477567   -5.97093e-03   5.37363e-04 DIIS
   @DF-RHF iter   9:  -193.11117445699423   -1.18787e-03   1.22111e-04 DIIS
   @DF-RHF iter  10:  -193.11125429976366   -7.98428e-05   3.52902e-05 DIIS
   @DF-RHF iter  11:  -193.11126020105993   -5.90130e-06   8.08285e-06 DIIS
   @DF-RHF iter  12:  -193.11126052150487   -3.20445e-07   2.25812e-06 DIIS
   @DF-RHF iter  13:  -193.11126054791188   -2.64070e-08   4.75507e-07 DIIS

  ==> Post-Iterations <==

    Orbital Energies (a.u.)
    -----------------------

    Doubly Occupied:                                                      

       1A    -20.547934     2A    -11.276012     3A    -11.217981  
       4A    -11.209486     5A     -1.359928     6A     -1.042341  
       7A     -0.944404     8A     -0.809660     9A     -0.678220  
      10A     -0.642093    11A     -0.611950    12A     -0.552613  
      13A     -0.541510    14A     -0.522574    15A     -0.514589  
      16A     -0.464209    17A     -0.428367  

    Virtual:                                                              

      18A      0.219812    19A      0.272306    20A      0.289484  
      21A      0.292772    22A      0.306612    23A      0.326437  
      24A      0.350102    25A      0.351087    26A      0.401196  
      27A      0.426354    28A      0.448598    29A      0.707419  
      30A      0.723151    31A      0.796211    32A      0.812159  
      33A      0.818828    34A      0.900108    35A      0.955501  
      36A      0.967827    37A      0.991504    38A      1.114618  
      39A      1.136545    40A      1.163288    41A      1.171215  
      42A      1.178416    43A      1.197065    44A      1.208435  
      45A      1.229970    46A      1.256752    47A      1.310730  
      48A      1.325218    49A      1.472960    50A      1.601840  
      51A      1.637087    52A      1.693654    53A      1.720560  
      54A      1.978263    55A      2.051971    56A      2.069642  
      57A      2.142358    58A      2.185425    59A      2.272401  
      60A      2.305831    61A      2.395808    62A      2.457956  
      63A      2.522449    64A      2.582358    65A      2.599519  
      66A      2.628808    67A      2.797828    68A      2.873693  
      69A      2.893902    70A      2.934719    71A      3.080795  
      72A      3.240626    73A      4.207707    74A      4.613052  
      75A      4.718648    76A      4.942690  

    Final Occupation by Irrep:
              A 
    DOCC [    17 ]

  Energy converged.

  @DF-RHF Final Energy:  -193.11126054791188

   => Energetics <=

    Nuclear Repulsion Energy =            135.8005031684297421
    One-Electron Energy =                -531.0958243427372736
    Two-Electron Energy =                 202.1840606263951088
    DFT Exchange-Correlation Energy =       0.0000000000000000
    Empirical Dispersion Energy =           0.0000000000000000
    PCM Polarization Energy =               0.0000000000000000
    EFP Energy =                            0.0000000000000000
    Total Energy =                       -193.1112605479124511

    Alert: EFP and PCM quantities not currently incorporated into SCF psivars.

Properties will be evaluated at   0.000000,   0.000000,   0.000000 Bohr
  ==> Properties <==


Properties computed using the SCF density matrix

  Nuclear Dipole Moment: (a.u.)
     X:    -0.9406      Y:    -3.4633      Z:    -0.1122

  Electronic Dipole Moment: (a.u.)
     X:     0.3572      Y:     3.0419      Z:     0.1500

  Dipole Moment: (a.u.)
     X:    -0.5834      Y:    -0.4213      Z:     0.0378     Total:     0.7206

  Dipole Moment: (Debye)
     X:    -1.4828      Y:    -1.0709      Z:     0.0961     Total:     1.8316


  Saving occupied orbitals to File 180.

*** tstop() called on cx1-3-15-4.cx1.hpc.ic.ac.uk at Tue Jul  5 16:25:38 2016
Module time:
	user time   =       2.93 seconds =       0.05 minutes
	system time =       0.03 seconds =       0.00 minutes
	total time  =          4 seconds =       0.07 minutes
Total time:
	user time   =       2.93 seconds =       0.05 minutes
	system time =       0.03 seconds =       0.00 minutes
	total time  =          4 seconds =       0.07 minutes


Properties will be evaluated at   0.000000,   0.000000,   0.000000 Bohr

Properties computed using the  density matrix

  Nuclear Dipole Moment: (a.u.)
     X:    -0.9406      Y:    -3.4633      Z:    -0.1122

  Electronic Dipole Moment: (a.u.)
     X:     0.3572      Y:     3.0419      Z:     0.1500

  Dipole Moment: (a.u.)
     X:    -0.5834      Y:    -0.4213      Z:     0.0378     Total:     0.7206

  Dipole Moment: (Debye)
     X:    -1.4828      Y:    -1.0709      Z:     0.0961     Total:     1.8316

  Quadrupole Moment: (Debye Ang)
    XX:   -25.4955     YY:   -27.8152     ZZ:   -26.3342
    XY:    -2.9257     XZ:     0.8264     YZ:    -0.5979

  Traceless Quadrupole Moment: (Debye Ang)
    XX:     1.0528     YY:    -1.2669     ZZ:     0.2141
    XY:    -2.9257     XZ:     0.8264     YZ:    -0.5979

  Mulliken Charges: (a.u.)
   Center  Symbol    Alpha    Beta     Spin     Total
       1     H     0.27849  0.27849  0.00000  0.44302
       2     O     4.37897  4.37897  0.00000 -0.75794
       3     C     2.90204  2.90204  0.00000  0.19591
       4     C     3.24201  3.24201  0.00000 -0.48403
       5     C     3.26709  3.26709  0.00000 -0.53417
       6     H     0.42692  0.42692  0.00000  0.14617
       7     H     0.41758  0.41758  0.00000  0.16485
       8     H     0.41162  0.41162  0.00000  0.17676
       9     H     0.42283  0.42283  0.00000  0.15435
      10     H     0.41516  0.41516  0.00000  0.16967
      11     H     0.42079  0.42079  0.00000  0.15842
      12     H     0.41650  0.41650  0.00000  0.16700

   Total alpha = 17.00000, Total beta = 17.00000, Total charge =  0.00000


*** PSI4 exiting successfully. Buy a developer a beer!
