
    -----------------------------------------------------------------------
          Psi4: An Open-Source Ab Initio Electronic Structure Package
                               Psi4 1.1 release

                         Git: Rev {HEAD} add49b9 


    R. M. Parrish, L. A. Burns, D. G. A. Smith, A. C. Simmonett,
    A. E. DePrince III, E. G. Hohenstein, U. Bozkaya, A. Yu. Sokolov,
    R. Di Remigio, R. M. Richard, J. F. Gonthier, A. M. James,
    H. R. McAlexander, A. Kumar, M. Saitow, X. Wang, B. P. Pritchard,
    P. Verma, H. F. Schaefer III, K. Patkowski, R. A. King, E. F. Valeev,
    F. A. Evangelista, J. M. Turney, T. D. Crawford, and C. D. Sherrill,
    J. Chem. Theory Comput. in press (2017).
    (doi: 10.1021/acs.jctc.7b00174)

    -----------------------------------------------------------------------


    Psi4 started on: Friday, 11 August 2017 07:51PM

    Process ID:  31684
    PSIDATADIR: /home/raimis/opt/miniconda3/envs/htmd/share/psi4
    Memory:     500.0 MiB
    Threads:    1
    
  ==> Input File <==

--------------------------------------------------------------------------
set {
	reference rks
	basis 6-31G*
}


set_num_threads( 8 )
memory 2 gb

molecule MOL {
1 1

C	 -0.000000	 -0.000000	 -0.191639
C	 0.038588	 -1.219315	 0.510391
C	 0.043106	 -1.212770	 1.901670
C	 -0.000000	 0.000000	 2.596333
C	 -0.043106	 1.212770	 1.901670
C	 -0.038587	 1.219315	 0.510391
C	 -0.000000	 -0.000000	 -1.658508
H	 0.115355	 -2.161706	 -0.024627
H	 0.090441	 -2.151412	 2.444112
H	 -0.000000	 0.000000	 3.681982
H	 -0.090442	 2.151412	 2.444112
H	 -0.115355	 2.161706	 -0.024627
N	 -0.712589	 -0.905950	 -2.322235
N	 0.712590	 0.905950	 -2.322235
H	 0.673432	 1.006470	 -3.329771
H	 1.377190	 1.485970	 -1.827091
H	 -1.377189	 -1.485970	 -1.827091
H	 -0.673431	 -1.006470	 -3.329771

	symmetry c1
}
set optking { dynamic_level = 1 }
set optking {
	frozen_dihedral = ("
		2 1 7 13
	")
}

ee,wfn = optimize('b3lyp-d3', return_wfn=True)
oeprop( wfn, 'DIPOLE', 'QUADRUPOLE', 'MULLIKEN_CHARGES')
f=open( 'psi4out.xyz', 'w' )
f.write( "18  " )
f.write( str(ee) + "\n" )
f.write( MOL.save_string_xyz() )
f.close()
--------------------------------------------------------------------------
  Threads set to 8 by Python driver.

  Memory set to   1.863 GiB by Python driver.
gradient() will perform analytic gradient computation.

*** tstart() called on computer03
*** at Fri Aug 11 19:51:13 2017

   => Loading Basis Set <=

    Name: 6-31G*
    Role: ORBITAL
    Keyword: BASIS
    atoms 1-7         entry C          line   102 file /home/raimis/opt/miniconda3/envs/htmd/share/psi4/basis/6-31gs.gbs 
    atoms 8-12, 15-18 entry H          line    35 file /home/raimis/opt/miniconda3/envs/htmd/share/psi4/basis/6-31gs.gbs 
    atoms 13-14       entry N          line   119 file /home/raimis/opt/miniconda3/envs/htmd/share/psi4/basis/6-31gs.gbs 


         ---------------------------------------------------------
                                   SCF
            by Justin Turney, Rob Parrish, and Andy Simmonett
                              RKS Reference
                        8 Threads,   1907 MiB Core
         ---------------------------------------------------------

  ==> Geometry <==

    Molecular point group: c1
    Full point group: C1

    Geometry (in Angstrom), charge = 1, multiplicity = 1:

       Center              X                  Y                   Z               Mass       
    ------------   -----------------  -----------------  -----------------  -----------------
           C         -0.000000223089    -0.000000000000    -0.191639316978    12.000000000000
           C          0.038587776911    -1.219315000000     0.510390683022    12.000000000000
           C          0.043105776911    -1.212770000000     1.901669683022    12.000000000000
           C         -0.000000223089    -0.000000000000     2.596332683022    12.000000000000
           C         -0.043106223089     1.212770000000     1.901669683022    12.000000000000
           C         -0.038587223089     1.219315000000     0.510390683022    12.000000000000
           C         -0.000000223089    -0.000000000000    -1.658508316978    12.000000000000
           H          0.115354776911    -2.161706000000    -0.024627316978     1.007825032070
           H          0.090440776911    -2.151412000000     2.444111683022     1.007825032070
           H         -0.000000223089    -0.000000000000     3.681981683022     1.007825032070
           H         -0.090442223089     2.151412000000     2.444111683022     1.007825032070
           H         -0.115355223089     2.161706000000    -0.024627316978     1.007825032070
           N         -0.712589223089    -0.905950000000    -2.322235316978    14.003074004780
           N          0.712589776911     0.905950000000    -2.322235316978    14.003074004780
           H          0.673431776911     1.006470000000    -3.329771316978     1.007825032070
           H          1.377189776911     1.485970000000    -1.827091316978     1.007825032070
           H         -1.377189223089    -1.485970000000    -1.827091316978     1.007825032070
           H         -0.673431223089    -1.006470000000    -3.329771316978     1.007825032070

  Running in c1 symmetry.

  Rotational constants: A =      0.12190  B =      0.03936  C =      0.03143 [cm^-1]
  Rotational constants: A =   3654.48854  B =   1179.90230  C =    942.23553 [MHz]
  Nuclear repulsion =  416.799750691969678

  Charge       = 1
  Multiplicity = 1
  Electrons    = 64
  Nalpha       = 32
  Nbeta        = 32

  ==> Algorithm <==

  SCF Algorithm Type is DF.
  DIIS enabled.
  MOM disabled.
  Fractional occupation disabled.
  Guess Type is SAD.
  Energy threshold   = 1.00e-08
  Density threshold  = 1.00e-08
  Integral threshold = 0.00e+00

  ==> Primary Basis <==

  Basis Set: 6-31G*
    Blend: 6-31G*
    Number of shells: 72
    Number of basis function: 153
    Number of Cartesian functions: 153
    Spherical Harmonics?: false
    Max angular momentum: 2

  ==> DFT Potential <==

   => B3LYP Composite Functional <= 

    B3LYP Hybrid-GGA Exchange-Correlation Functional (VWN1-RPA)

    P.J. Stephens et. al., J. Phys. Chem., 98, 11623-11627, 1994

    Points   =           5000
    Deriv    =              1
    GGA      =           TRUE
    Meta     =          FALSE

    X_LRC        =          FALSE
    X_Hybrid     =           TRUE
    X_Alpha      =   2.000000E-01
    X_Omega      =   0.000000E+00
    C_LRC        =          FALSE
    C_Hybrid     =          FALSE
    C_Alpha      =   0.000000E+00
    C_Omega      =   0.000000E+00

   => Exchange Functionals <=

    0.8000    B3_X
    0.2000      HF 

   => Correlation Functionals <=

    0.1900 VWN3RPA_C
    0.8100   LYP_C

   => Molecular Quadrature <=

    Radial Scheme    =       TREUTLER
    Pruning Scheme   =           FLAT
    Nuclear Scheme   =       TREUTLER

    BS radius alpha  =              1
    Pruning alpha    =              1
    Radial Points    =             75
    Spherical Points =            302
    Total Points     =         396976
    Total Blocks     =            362
    Max Points       =           4932
    Max Functions    =            151

   => -D3ZERO: Empirical Dispersion <=

    Grimme's -D3 (zero-damping) Dispersion Correction
    Grimme S.; Antony J.; Ehrlich S.; Krieg H. (2010), J. Chem. Phys., 132: 154104

        S6 =   1.000000E+00
        S8 =   1.703000E+00
       SR6 =   1.261000E+00
    ALPHA6 =   1.400000E+01

   => Loading Basis Set <=

    Name: (6-31G* AUX)
    Role: JKFIT
    Keyword: DF_BASIS_SCF
    atoms 1-7         entry C          line   120 file /home/raimis/opt/miniconda3/envs/htmd/share/psi4/basis/cc-pvdz-jkfit.gbs 
    atoms 8-12, 15-18 entry H          line    50 file /home/raimis/opt/miniconda3/envs/htmd/share/psi4/basis/cc-pvdz-jkfit.gbs 
    atoms 13-14       entry N          line   170 file /home/raimis/opt/miniconda3/envs/htmd/share/psi4/basis/cc-pvdz-jkfit.gbs 

  ==> Pre-Iterations <==

   -------------------------------------------------------
    Irrep   Nso     Nmo     Nalpha   Nbeta   Ndocc  Nsocc
   -------------------------------------------------------
     A        153     153       0       0       0       0
   -------------------------------------------------------
    Total     153     153      32      32      32       0
   -------------------------------------------------------

  ==> Integral Setup <==

  ==> DFJK: Density-Fitted J/K Matrices <==

    J tasked:                  Yes
    K tasked:                  Yes
    wK tasked:                  No
    OpenMP threads:              8
    Integrals threads:           8
    Memory (MB):              1430
    Algorithm:                Core
    Integral Cache:           NONE
    Schwarz Cutoff:          1E-12
    Fitting Condition:       1E-12

   => Auxiliary Basis Set <=

  Basis Set: (6-31G* AUX)
    Blend: CC-PVDZ-JKFIT
    Number of shells: 297
    Number of basis function: 954
    Number of Cartesian functions: 954
    Spherical Harmonics?: false
    Max angular momentum: 3

  Minimum eigenvalue in the overlap matrix is 4.8733222792E-04.
  Using Symmetric Orthogonalization.

  SCF Guess: Superposition of Atomic Densities via on-the-fly atomic UHF.

  ==> Iterations <==

                           Total Energy        Delta E     RMS |[F,P]|

   @DF-RKS iter   0:  -380.04816666263650   -3.80048e+02   6.96687e-02 
   @DF-RKS iter   1:  -381.10647261106385   -1.05831e+00   1.06200e-02 
   @DF-RKS iter   2:  -381.02968504131081    7.67876e-02   1.22493e-02 DIIS
   @DF-RKS iter   3:  -381.46201710046120   -4.32332e-01   1.62053e-03 DIIS
   @DF-RKS iter   4:  -381.46812644774309   -6.10935e-03   8.23337e-04 DIIS
   @DF-RKS iter   5:  -381.47010382197362   -1.97737e-03   2.29172e-04 DIIS
   @DF-RKS iter   6:  -381.47039450519611   -2.90683e-04   7.44769e-05 DIIS
   @DF-RKS iter   7:  -381.47041135762447   -1.68524e-05   1.56468e-05 DIIS
   @DF-RKS iter   8:  -381.47041200700755   -6.49383e-07   5.13840e-06 DIIS
   @DF-RKS iter   9:  -381.47041207893244   -7.19249e-08   1.31409e-06 DIIS
   @DF-RKS iter  10:  -381.47041208239341   -3.46097e-09   5.72287e-07 DIIS
   @DF-RKS iter  11:  -381.47041208384462   -1.45121e-09   6.07549e-08 DIIS
   @DF-RKS iter  12:  -381.47041208384923   -4.60432e-12   3.33411e-08 DIIS
   @DF-RKS iter  13:  -381.47041208385440   -5.17275e-12   9.33396e-09 DIIS

  ==> Post-Iterations <==

    Orbital Energies (a.u.)
    -----------------------

    Doubly Occupied:                                                      

       1A    -14.568554     2A    -14.568547     3A    -10.497511  
       4A    -10.372711     5A    -10.355402     6A    -10.355393  
       7A    -10.342215     8A    -10.339755     9A    -10.339696  
      10A     -1.184111    11A     -1.092181    12A     -1.013718  
      13A     -0.926278    14A     -0.901478    15A     -0.845208  
      16A     -0.785817    17A     -0.772426    18A     -0.742586  
      19A     -0.732270    20A     -0.688936    21A     -0.669025  
      22A     -0.624511    23A     -0.617775    24A     -0.585347  
      25A     -0.578615    26A     -0.571980    27A     -0.518196  
      28A     -0.504686    29A     -0.497305    30A     -0.473271  
      31A     -0.411205    32A     -0.405059  

    Virtual:                                                              

      33A     -0.215472    34A     -0.156815    35A     -0.131563  
      36A     -0.107809    37A     -0.066396    38A     -0.061367  
      39A     -0.038699    40A     -0.033229    41A      0.006952  
      42A      0.018361    43A      0.021319    44A      0.055498  
      45A      0.062158    46A      0.082743    47A      0.128925  
      48A      0.151074    49A      0.153979    50A      0.158636  
      51A      0.201428    52A      0.242176    53A      0.297872  
      54A      0.349116    55A      0.355643    56A      0.382246  
      57A      0.387131    58A      0.397529    59A      0.421067  
      60A      0.422691    61A      0.443550    62A      0.448211  
      63A      0.453176    64A      0.471720    65A      0.471892  
      66A      0.475933    67A      0.485342    68A      0.513498  
      69A      0.524553    70A      0.533820    71A      0.539020  
      72A      0.587611    73A      0.605126    74A      0.653455  
      75A      0.657870    76A      0.683253    77A      0.686890  
      78A      0.704648    79A      0.715681    80A      0.716501  
      81A      0.736575    82A      0.766929    83A      0.775350  
      84A      0.799566    85A      0.810358    86A      0.829646  
      87A      0.850617    88A      0.942443    89A      0.962655  
      90A      0.992814    91A      1.000525    92A      1.027285  
      93A      1.061371    94A      1.075508    95A      1.144877  
      96A      1.167401    97A      1.223038    98A      1.272084  
      99A      1.284107   100A      1.307875   101A      1.321483  
     102A      1.344010   103A      1.363230   104A      1.372160  
     105A      1.444106   106A      1.454243   107A      1.470275  
     108A      1.611618   109A      1.623486   110A      1.655767  
     111A      1.665890   112A      1.736316   113A      1.754343  
     114A      1.794921   115A      1.826509   116A      1.855432  
     117A      1.901691   118A      1.907066   119A      1.961927  
     120A      1.974755   121A      1.998291   122A      2.016428  
     123A      2.043734   124A      2.064301   125A      2.125579  
     126A      2.131361   127A      2.153246   128A      2.217407  
     129A      2.224018   130A      2.261586   131A      2.355924  
     132A      2.367425   133A      2.438400   134A      2.454392  
     135A      2.490558   136A      2.521219   137A      2.552806  
     138A      2.587836   139A      2.605410   140A      2.630256  
     141A      2.737523   142A      2.883318   143A      2.979546  
     144A      3.259291   145A      3.637834   146A      3.654217  
     147A      3.915186   148A      3.949352   149A      3.964938  
     150A      4.057344   151A      4.175840   152A      4.258015  
     153A      4.546620  

    Final Occupation by Irrep:
              A 
    DOCC [    32 ]

  Energy converged.

  @DF-RKS Final Energy:  -381.47041208385440

   => Energetics <=

    Nuclear Repulsion Energy =            416.7997506919696775
    One-Electron Energy =               -1328.8291776453638704
    Two-Electron Energy =                 574.9763985717097512
    DFT Exchange-Correlation Energy =     -44.4054203821698295
    Empirical Dispersion Energy =          -0.0119633200000000
    PCM Polarization Energy =               0.0000000000000000
    EFP Energy =                            0.0000000000000000
    Total Energy =                       -381.4704120838543417



Properties will be evaluated at   0.000000,   0.000000,   0.000000 Bohr

Properties computed using the SCF density matrix

  Nuclear Dipole Moment: (a.u.)
     X:    -0.0000      Y:    -0.0000      Z:    -1.6672

  Electronic Dipole Moment: (a.u.)
     X:     0.0000      Y:    -0.0000      Z:    -0.6366

  Dipole Moment: (a.u.)
     X:    -0.0000      Y:    -0.0000      Z:    -2.3037     Total:     2.3037

  Dipole Moment: (Debye)
     X:    -0.0000      Y:    -0.0000      Z:    -5.8555     Total:     5.8555


*** tstop() called on computer03 at Fri Aug 11 19:52:12 2017
Module time:
	user time   =      92.77 seconds =       1.55 minutes
	system time =       1.42 seconds =       0.02 minutes
	total time  =         59 seconds =       0.98 minutes
Total time:
	user time   =      92.77 seconds =       1.55 minutes
	system time =       1.42 seconds =       0.02 minutes
	total time  =         59 seconds =       0.98 minutes

*** tstart() called on computer03
*** at Fri Aug 11 19:52:12 2017


         ------------------------------------------------------------
                                   SCF GRAD                          
                          Rob Parrish, Justin Turney,                
                       Andy Simmonett, and Alex Sokolov              
         ------------------------------------------------------------

  ==> Geometry <==

    Molecular point group: c1
    Full point group: C1

    Geometry (in Angstrom), charge = 1, multiplicity = 1:

       Center              X                  Y                   Z               Mass       
    ------------   -----------------  -----------------  -----------------  -----------------
           C         -0.000000223089    -0.000000000000    -0.191639316978    12.000000000000
           C          0.038587776911    -1.219315000000     0.510390683022    12.000000000000
           C          0.043105776911    -1.212770000000     1.901669683022    12.000000000000
           C         -0.000000223089    -0.000000000000     2.596332683022    12.000000000000
           C         -0.043106223089     1.212770000000     1.901669683022    12.000000000000
           C         -0.038587223089     1.219315000000     0.510390683022    12.000000000000
           C         -0.000000223089    -0.000000000000    -1.658508316978    12.000000000000
           H          0.115354776911    -2.161706000000    -0.024627316978     1.007825032070
           H          0.090440776911    -2.151412000000     2.444111683022     1.007825032070
           H         -0.000000223089    -0.000000000000     3.681981683022     1.007825032070
           H         -0.090442223089     2.151412000000     2.444111683022     1.007825032070
           H         -0.115355223089     2.161706000000    -0.024627316978     1.007825032070
           N         -0.712589223089    -0.905950000000    -2.322235316978    14.003074004780
           N          0.712589776911     0.905950000000    -2.322235316978    14.003074004780
           H          0.673431776911     1.006470000000    -3.329771316978     1.007825032070
           H          1.377189776911     1.485970000000    -1.827091316978     1.007825032070
           H         -1.377189223089    -1.485970000000    -1.827091316978     1.007825032070
           H         -0.673431223089    -1.006470000000    -3.329771316978     1.007825032070

  Nuclear repulsion =  416.799750691969678

  ==> Basis Set <==

  Basis Set: 6-31G*
    Blend: 6-31G*
    Number of shells: 72
    Number of basis function: 153
    Number of Cartesian functions: 153
    Spherical Harmonics?: false
    Max angular momentum: 2

  ==> DFJKGrad: Density-Fitted SCF Gradients <==

    Gradient:                    1
    J tasked:                  Yes
    K tasked:                  Yes
    wK tasked:                  No
    OpenMP threads:              8
    Integrals threads:           8
    Memory (MB):              1430
    Schwarz Cutoff:          0E+00
    Fitting Condition:       1E-12

   => Auxiliary Basis Set <=

  Basis Set: (6-31G* AUX)
    Blend: CC-PVDZ-JKFIT
    Number of shells: 297
    Number of basis function: 954
    Number of Cartesian functions: 954
    Spherical Harmonics?: false
    Max angular momentum: 3

  ==> DFT Potential <==

   => B3LYP Composite Functional <= 

    B3LYP Hybrid-GGA Exchange-Correlation Functional (VWN1-RPA)

    P.J. Stephens et. al., J. Phys. Chem., 98, 11623-11627, 1994

    Points   =           5000
    Deriv    =              1
    GGA      =           TRUE
    Meta     =          FALSE

    X_LRC        =          FALSE
    X_Hybrid     =           TRUE
    X_Alpha      =   2.000000E-01
    X_Omega      =   0.000000E+00
    C_LRC        =          FALSE
    C_Hybrid     =          FALSE
    C_Alpha      =   0.000000E+00
    C_Omega      =   0.000000E+00

   => Exchange Functionals <=

    0.8000    B3_X
    0.2000      HF 

   => Correlation Functionals <=

    0.1900 VWN3RPA_C
    0.8100   LYP_C

   => Molecular Quadrature <=

    Radial Scheme    =       TREUTLER
    Pruning Scheme   =           FLAT
    Nuclear Scheme   =       TREUTLER

    BS radius alpha  =              1
    Pruning alpha    =              1
    Radial Points    =             75
    Spherical Points =            302
    Total Points     =         396976
    Total Blocks     =            362
    Max Points       =           4932
    Max Functions    =            151


  -Total Gradient:
     Atom            X                  Y                   Z
    ------   -----------------  -----------------  -----------------
       1       -0.000000108950    -0.000000127620    -0.000909166072
       2        0.000260928454     0.000298551086     0.000457163969
       3       -0.000073064381    -0.000245194456    -0.000173022863
       4        0.000000004661     0.000000000539    -0.000005576959
       5        0.000072994397     0.000245166397    -0.000173048436
       6       -0.000260655707    -0.000298584157     0.000457205051
       7       -0.000000362637    -0.000000226496     0.001035898161
       8        0.000297875160    -0.000092395877     0.000325743238
       9       -0.000022670685     0.000016858825     0.000008082157
      10        0.000000021236    -0.000000000197    -0.000011029133
      11        0.000022623123    -0.000016821098     0.000008109423
      12       -0.000297929996     0.000092460076     0.000325710596
      13       -0.000395415558     0.000031298346    -0.000477543784
      14        0.000395737317    -0.000031010238    -0.000477729893
      15       -0.000008863182    -0.000043891746     0.000142701074
      16        0.000118289932    -0.000162609401    -0.000346959262
      17       -0.000118256823     0.000162635761    -0.000346934813
      18        0.000008853683     0.000043890277     0.000142708257


*** tstop() called on computer03 at Fri Aug 11 19:52:24 2017
Module time:
	user time   =      23.95 seconds =       0.40 minutes
	system time =       0.42 seconds =       0.01 minutes
	total time  =         12 seconds =       0.20 minutes
Total time:
	user time   =     116.88 seconds =       1.95 minutes
	system time =       1.85 seconds =       0.03 minutes
	total time  =         71 seconds =       1.18 minutes

			-----------------------------------------
			 OPTKING 2.0: for geometry optimizations 
			  - R.A. King,  Bethel University        
			-----------------------------------------
	At level 1: Red. Int., RFO, no backsteps, dynamic trust

	Internal coordinates to be generated automatically.
	Detected frag 1 with atoms:  1 2 3 4 5 6 7 8 9 10 11 12 13 14 15 16 17 18
	---Fragment 1 Bond Connectivity---
	 1 : 2 6 7
	 2 : 1 3 8
	 3 : 2 4 9
	 4 : 3 5 10
	 5 : 4 6 11
	 6 : 1 5 12
	 7 : 1 13 14
	 8 : 2
	 9 : 3
	 10 : 4
	 11 : 5
	 12 : 6
	 13 : 7 17 18
	 14 : 7 15 16
	 15 : 14
	 16 : 14
	 17 : 13
	 18 : 13

	Assuming in current code that numbering for constraints corresponds to unified fragment.
	Frozen dihedral atom list: 
	     2     1     7    13
	---Fragment 1 Geometry and Gradient---
	 C          -0.0000004216       -0.0000000000       -0.3621458254
	 C           0.0729203304       -2.3041714197        0.9644986117
	 C           0.0814581131       -2.2918031622        3.5936348961
	 C          -0.0000004216       -0.0000000000        4.9063577208
	 C          -0.0814589563        2.2918031622        3.5936348961
	 C          -0.0729192839        2.3041714197        0.9644986117
	 C          -0.0000004216       -0.0000000000       -3.1341265082
	 H           0.2179889365       -4.0850323198       -0.0465388845
	 H           0.1709082996       -4.0655794790        4.6187017191
	 H          -0.0000004216       -0.0000000000        6.9579370072
	 H          -0.1709110325        4.0655794790        4.6187017191
	 H          -0.2179897796        4.0850323198       -0.0465388845
	 N          -1.3465984769       -1.7119973901       -4.3883887652
	 N           1.3465995235        1.7119973901       -4.3883887652
	 H           1.2726016275        1.9019526610       -6.2923558742
	 H           2.6025115114        2.8080763417       -3.4527022089
	 H          -2.6025104648       -2.8080763417       -3.4527022089
	 H          -1.2726005810       -1.9019526610       -6.2923558742
	            -0.0000001089       -0.0000001276       -0.0009091661
	             0.0002609285        0.0002985511        0.0004571640
	            -0.0000730644       -0.0002451945       -0.0001730229
	             0.0000000047        0.0000000005       -0.0000055770
	             0.0000729944        0.0002451664       -0.0001730484
	            -0.0002606557       -0.0002985842        0.0004572051
	            -0.0000003626       -0.0000002265        0.0010358982
	             0.0002978752       -0.0000923959        0.0003257432
	            -0.0000226707        0.0000168588        0.0000080822
	             0.0000000212       -0.0000000002       -0.0000110291
	             0.0000226231       -0.0000168211        0.0000081094
	            -0.0002979300        0.0000924601        0.0003257106
	            -0.0003954156        0.0000312983       -0.0004775438
	             0.0003957373       -0.0000310102       -0.0004777299
	            -0.0000088632       -0.0000438917        0.0001427011
	             0.0001182899       -0.0001626094       -0.0003469593
	            -0.0001182568        0.0001626358       -0.0003469348
	             0.0000088537        0.0000438903        0.0001427083

	Previous optimization step data not found.  Starting new optimization.

	---Fragment 1 Intrafragment Coordinates---
	 - Coordinate -           - BOHR/RAD -       - ANG/DEG -
	 R(1,2)           =         2.659795	       1.407503
	 R(1,6)           =         2.659795	       1.407503
	 R(1,7)           =         2.771981	       1.466869
	 R(2,3)           =         2.629179	       1.391302
	 R(2,8)           =         2.052975	       1.086388
	 R(3,4)           =         2.642393	       1.398294
	 R(3,9)           =         2.050621	       1.085142
	 R(4,5)           =         2.642393	       1.398294
	 R(4,10)          =         2.051579	       1.085649
	 R(5,6)           =         2.629179	       1.391302
	 R(5,11)          =         2.050621	       1.085142
	 R(6,12)          =         2.052975	       1.086388
	 R(7,13)          =         2.513451	       1.330061
	 R(7,14)          =         2.513452	       1.330061
	 R(13,17)         =         1.911600	       1.011575
	 R(13,18)         =         1.914850	       1.013295
	 R(14,15)         =         1.914850	       1.013295
	 R(14,16)         =         1.911600	       1.011575
	 B(1,2,3)         =         2.088381	     119.655415
	 B(1,2,8)         =         2.103396	     120.515715
	 B(1,6,5)         =         2.088381	     119.655417
	 B(1,6,12)        =         2.103396	     120.515712
	 B(1,7,13)        =         2.093264	     119.935185
	 B(1,7,14)        =         2.093264	     119.935172
	 B(2,1,6)         =         2.097218	     120.161763
	 B(2,1,7)         =         2.092983	     119.919118
	 B(2,3,4)         =         2.095279	     120.050633
	 B(2,3,9)         =         2.089720	     119.732121
	 B(3,2,8)         =         2.090148	     119.756663
	 B(3,4,5)         =         2.101793	     120.423860
	 B(3,4,10)        =         2.090696	     119.788070
	 B(4,3,9)         =         2.098135	     120.214288
	 B(4,5,6)         =         2.095279	     120.050631
	 B(4,5,11)        =         2.098135	     120.214288
	 B(5,4,10)        =         2.090696	     119.788070
	 B(5,6,12)        =         2.090148	     119.756658
	 B(6,1,7)         =         2.092983	     119.919119
	 B(6,5,11)        =         2.089720	     119.732122
	 B(7,13,17)       =         2.092411	     119.886337
	 B(7,13,18)       =         2.144861	     122.891462
	 B(7,14,15)       =         2.144860	     122.891445
	 B(7,14,16)       =         2.092412	     119.886356
	 B(13,7,14)       =         2.096658	     120.129643
	 B(15,14,16)      =         2.043399	     117.078143
	 B(17,13,18)      =         2.043399	     117.078143
	 D(1,2,3,4)       =         0.007799	       0.446827
	 D(1,2,3,9)       =        -3.122898	    -178.928866
	 D(1,6,5,4)       =         0.007800	       0.446921
	 D(1,6,5,11)      =        -3.122896	    -178.928758
	 D(1,7,13,17)     =         0.187845	      10.762714
	 D(1,7,13,18)     =        -3.032164	    -173.730222
	 D(1,7,14,15)     =        -3.032164	    -173.730221
	 D(1,7,14,16)     =         0.187844	      10.762677
	 D(2,1,6,5)       =        -0.003908	      -0.223900
	 D(2,1,6,12)      =        -3.091438	    -177.126366
	*D(2,1,7,13)      =         0.698132	      40.000019
	 D(2,1,7,14)      =        -2.443460	    -139.999942
	 D(2,3,4,5)       =        -0.003942	      -0.225876
	 D(2,3,4,10)      =         3.137650	     179.774124
	 D(3,2,1,6)       =        -0.003905	      -0.223758
	 D(3,2,1,7)       =         3.137687	     179.776194
	 D(3,4,5,6)       =        -0.003943	      -0.225924
	 D(3,4,5,11)      =         3.126700	     179.146718
	 D(4,3,2,8)       =         3.095746	     177.373202
	 D(4,5,6,12)      =         3.095745	     177.373142
	 D(5,4,3,9)       =         3.126701	     179.146779
	 D(5,6,1,7)       =         3.137686	     179.776147
	 D(6,1,2,8)       =        -3.091439	    -177.126381
	 D(6,1,7,13)      =        -2.443461	    -140.000028
	 D(6,1,7,14)      =         0.698132	      40.000011
	 D(6,5,4,10)      =         3.137650	     179.774076
	 D(7,1,2,8)       =         0.050153	       2.873572
	 D(7,1,6,12)      =         0.050155	       2.873681
	 D(8,2,3,9)       =        -0.034950	      -2.002490
	 D(9,3,4,10)      =        -0.014892	      -0.853221
	 D(10,4,5,11)     =        -0.014893	      -0.853282
	 D(11,5,6,12)     =        -0.034951	      -2.002537
	 D(13,7,14,15)    =         0.109429	       6.269819
	 D(13,7,14,16)    =        -2.953748	    -169.237284
	 D(14,7,13,17)    =        -2.953749	    -169.237325
	 D(14,7,13,18)    =         0.109428	       6.269739

	Current energy   :      -381.4704120839

	Generating empirical Hessian (Schlegel '84) for each fragment.
	Taking RFO optimization step.
	Going to follow RFO solution 1.
	Using RFO vector 1.
	Norm of target step-size    0.07699
	Projected energy change by RFO approximation:        -0.0000475170

	Back-transformation to cartesian coordinates...
	Could not converge backtransformation.
	Using first guess instead.

	Back-transformation to cartesian coordinates to adjust frozen coordinates...
	Successfully converged to displaced geometry.

	--- Internal Coordinate Step in ANG or DEG, aJ/ANG or AJ/DEG ---
	 ---------------------------------------------------------------------------
	   Coordinate                Previous        Force       Change         New 
	   ----------                --------       ------       ------       ------
	    1 R(1,2)          =      1.407503    -0.003491    -0.000521     1.406982
	    2 R(1,6)          =      1.407503    -0.003490    -0.000405     1.407098
	    3 R(1,7)          =      1.466869    -0.002644    -0.000411     1.466458
	    4 R(2,3)          =      1.391302     0.001414     0.000201     1.391502
	    5 R(2,8)          =      1.086388     0.000492     0.000155     1.086542
	    6 R(3,4)          =      1.398294     0.000735     0.000150     1.398444
	    7 R(3,9)          =      1.085142     0.000091     0.000029     1.085171
	    8 R(4,5)          =      1.398294     0.000736     0.000150     1.398444
	    9 R(4,10)         =      1.085649     0.000083     0.000020     1.085669
	   10 R(5,6)          =      1.391302     0.001417     0.000196     1.391498
	   11 R(5,11)         =      1.085142     0.000091     0.000079     1.085220
	   12 R(6,12)         =      1.086388     0.000492     0.000235     1.086623
	   13 R(7,13)         =      1.330061    -0.003684    -0.000366     1.329695
	   14 R(7,14)         =      1.330061    -0.003688    -0.000166     1.329895
	   15 R(13,17)        =      1.011575     0.001522     0.000349     1.011924
	   16 R(13,18)        =      1.013295     0.001211     0.000172     1.013467
	   17 R(14,15)        =      1.013295     0.001211     0.000195     1.013490
	   18 R(14,16)        =      1.011575     0.001522     0.000541     1.012116
	   19 B(1,2,3)        =    119.655415    -0.000027    -0.089288   119.566128
	   20 B(1,2,8)        =    120.515715    -0.000012    -0.068544   120.447171
	   21 B(1,6,5)        =    119.655417    -0.000027    -0.092778   119.562639
	   22 B(1,6,12)       =    120.515712    -0.000013    -0.065804   120.449908
	   23 B(1,7,13)       =    119.935185    -0.000048    -0.143247   119.791938
	   24 B(1,7,14)       =    119.935172    -0.000048    -0.160116   119.775056
	   25 B(2,1,6)        =    120.161763     0.000054     0.155314   120.317078
	   26 B(2,1,7)        =    119.919118    -0.000027    -0.078665   119.840453
	   27 B(2,3,4)        =    120.050633    -0.000002     0.000687   120.051319
	   28 B(2,3,9)        =    119.732121    -0.000000    -0.007193   119.724928
	   29 B(3,2,8)        =    119.756663     0.000040     0.176757   119.933421
	   30 B(3,4,5)        =    120.423860     0.000003     0.022203   120.446064
	   31 B(3,4,10)       =    119.788070    -0.000002    -0.010212   119.777858
	   32 B(4,3,9)        =    120.214288     0.000002     0.007090   120.221378
	   33 B(4,5,6)        =    120.050631    -0.000002    -0.000365   120.050266
	   34 B(4,5,11)       =    120.214288     0.000002     0.009079   120.223367
	   35 B(5,4,10)       =    119.788070    -0.000002    -0.012195   119.775875
	   36 B(5,6,12)       =    119.756658     0.000040     0.170728   119.927386
	   37 B(6,1,7)        =    119.919119    -0.000027    -0.089415   119.829703
	   38 B(6,5,11)       =    119.732122    -0.000000    -0.006958   119.725164
	   39 B(7,13,17)      =    119.886337    -0.000025    -0.107775   119.778562
	   40 B(7,13,18)      =    122.891462     0.000016     0.082296   122.973757
	   41 B(7,14,15)      =    122.891445     0.000016     0.080639   122.972084
	   42 B(7,14,16)      =    119.886356    -0.000026    -0.094847   119.791509
	   43 B(13,7,14)      =    120.129643     0.000096     0.291834   120.421477
	   44 B(15,14,16)     =    117.078143     0.000011     0.047935   117.126078
	   45 B(17,13,18)     =    117.078143     0.000011     0.059248   117.137391
	   46 D(1,2,3,4)      =      0.446827    -0.000000    -0.122573     0.324254
	   47 D(1,2,3,9)      =   -178.928866    -0.000001    -0.187610  -179.116476
	   48 D(1,6,5,4)      =      0.446921     0.000002     0.355731     0.802652
	   49 D(1,6,5,11)     =   -178.928758     0.000001     0.129519  -178.799239
	   50 D(1,7,13,17)    =     10.762714    -0.000006    -1.176575     9.586139
	   51 D(1,7,13,18)    =   -173.730222    -0.000003    -0.613599  -174.343821
	   52 D(1,7,14,15)    =   -173.730221     0.000003     0.618773  -173.111447
	   53 D(1,7,14,16)    =     10.762677    -0.000001     0.056946    10.819623
	   54 D(2,1,6,5)      =     -0.223900    -0.000003    -0.662961    -0.886860
	   55 D(2,1,6,12)     =   -177.126366    -0.000004    -0.940080  -178.066446
	   56 *D(2,1,7,13)    =     40.000019    -0.000000    -0.000000    40.000019
	   57 D(2,1,7,14)     =   -139.999942    -0.000005    -1.229827  -141.229769
	   58 D(2,3,4,5)      =     -0.225876    -0.000001    -0.183449    -0.409325
	   59 D(2,3,4,10)     =    179.774124    -0.000000    -0.018810   179.755313
	   60 D(3,2,1,6)      =     -0.223758     0.000002     0.546182     0.322424
	   61 D(3,2,1,7)      =    179.776194    -0.000003    -0.755593   179.020602
	   62 D(3,4,5,6)      =     -0.225924     0.000000     0.064927    -0.160997
	   63 D(3,4,5,11)     =    179.146718     0.000001     0.292175   179.438892
	   64 D(4,3,2,8)      =    177.373202     0.000002     0.308639   177.681841
	   65 D(4,5,6,12)     =    177.373142     0.000003     0.624032   177.997174
	   66 D(5,4,3,9)      =    179.146779    -0.000000    -0.118176   179.028603
	   67 D(5,6,1,7)      =    179.776147     0.000002     0.638674   180.414822
	   68 D(6,1,2,8)      =   -177.126381    -0.000000     0.105048  -177.021333
	   69 D(6,1,7,13)     =   -140.000028    -0.000005    -1.295377  -141.295406
	   70 D(6,1,7,14)     =     40.000011    -0.000010    -2.525204    37.474807
	   71 D(6,5,4,10)     =    179.774076    -0.000001    -0.099708   179.674368
	   72 D(7,1,2,8)      =      2.873572    -0.000005    -1.196727     1.676845
	   73 D(7,1,6,12)     =      2.873681     0.000000     0.361555     3.235236
	   74 D(8,2,3,9)      =     -2.002490     0.000001     0.243602    -1.758889
	   75 D(9,3,4,10)     =     -0.853221     0.000000     0.046463    -0.806759
	   76 D(10,4,5,11)    =     -0.853282     0.000001     0.127539    -0.725743
	   77 D(11,5,6,12)    =     -2.002537     0.000002     0.397820    -1.604717
	   78 D(13,7,14,15)   =      6.269819    -0.000003    -0.618915     5.650904
	   79 D(13,7,14,16)   =   -169.237284    -0.000006    -1.180742  -170.418026
	   80 D(14,7,13,17)   =   -169.237325    -0.000001     0.061321  -169.176004
	   81 D(14,7,13,18)   =      6.269739     0.000003     0.624298     6.894036
	 ---------------------------------------------------------------------------
	Successfully symmetrized geometry.

  ==> Convergence Check <==

  Measures of convergence in internal coordinates in au.
  Criteria marked as inactive (o), active & met (*), and active & unmet ( ).
  --------------------------------------------------------------------------------------------- ~
   Step     Total Energy     Delta E     MAX Force     RMS Force      MAX Disp      RMS Disp    ~
  --------------------------------------------------------------------------------------------- ~
    Convergence Criteria    1.00e-06 *    3.00e-04 *             o    1.20e-03 *             o  ~
  --------------------------------------------------------------------------------------------- ~
      1    -381.47041208   -3.81e+02      1.27e-03      2.86e-04 o    4.41e-02      8.55e-03 o  ~
  ---------------------------------------------------------------------------------------------

	Writing optimization data to binary file.
	Structure for next step:
	Cartesian Geometry (in Angstrom)
	    C    -0.0092109541  -0.0039765354  -0.1921336863
	    C     0.0270141231  -1.2225515130   0.5102627723
	    C     0.0351575946  -1.2130324551   1.9017088122
	    C     0.0005963874   0.0015749285   2.5939365046
	    C    -0.0336970288   1.2135877522   1.8971619927
	    C    -0.0302339953   1.2177212446   0.5056749141
	    C     0.0037557584  -0.0063263001  -1.6585325269
	    H     0.0919557617  -2.1653782407  -0.0258666852
	    H     0.0775964104  -2.1508916060   2.4459657846
	    H     0.0030931713   0.0036987180   3.6796005511
	    H    -0.0696369519   2.1537704862   2.4379653105
	    H    -0.0898010189   2.1590867251  -0.0337995230
	    N    -0.7009522422  -0.9166211938  -2.3239932720
	    N     0.7006888208   0.9171878755  -2.3142972166
	    H     0.6635769806   1.0243437359  -3.3214228332
	    H     1.3461556465   1.5120329781  -1.8104015093
	    H    -1.3541415613  -1.5084477578  -1.8269269448
	    H    -0.6619179179  -1.0157788421  -3.3318421504
			--------------------------
			 OPTKING Finished Execution 
			--------------------------

    Structure for next step:
    Molecular point group: c1
    Full point group: C1

    Geometry (in Angstrom), charge = 1, multiplicity = 1:

    C           -0.008581833841    -0.002856865946    -0.191686954280
    C            0.027643243366    -1.221431843494     0.510709504298
    C            0.035786714843    -1.211912785626     1.902155544170
    C            0.001225507649     0.002694597976     2.594383236603
    C           -0.033067908567     1.214707421674     1.897608724660
    C           -0.029604875065     1.218840914075     0.506121646068
    C            0.004384878642    -0.005206630589    -1.658085794904
    H            0.092584882018    -2.164258571208    -0.025419953252
    H            0.078225530721    -2.149771936460     2.446412516629
    H            0.003722291582     0.004818387533     3.680047283087
    H           -0.069007831605     2.154890155704     2.438412042533
    H           -0.089171898588     2.160206394545    -0.033352790967
    N           -0.700323121942    -0.915501524357    -2.323546540008
    N            0.701317941088     0.918307544972    -2.313850484586
    H            0.664206100929     1.025463405420    -3.320976101184
    H            1.346784766802     1.513152647546    -1.809954777349
    H           -1.353512440996    -1.507328088299    -1.826480212843
    H           -0.661288797585    -1.014659172628    -3.331395418445

gradient() will perform analytic gradient computation.

*** tstart() called on computer03
*** at Fri Aug 11 19:52:24 2017

   => Loading Basis Set <=

    Name: 6-31G*
    Role: ORBITAL
    Keyword: BASIS
    atoms 1-7         entry C          line   102 file /home/raimis/opt/miniconda3/envs/htmd/share/psi4/basis/6-31gs.gbs 
    atoms 8-12, 15-18 entry H          line    35 file /home/raimis/opt/miniconda3/envs/htmd/share/psi4/basis/6-31gs.gbs 
    atoms 13-14       entry N          line   119 file /home/raimis/opt/miniconda3/envs/htmd/share/psi4/basis/6-31gs.gbs 


         ---------------------------------------------------------
                                   SCF
            by Justin Turney, Rob Parrish, and Andy Simmonett
                              RKS Reference
                        8 Threads,   1907 MiB Core
         ---------------------------------------------------------

  ==> Geometry <==

    Molecular point group: c1
    Full point group: C1

    Geometry (in Angstrom), charge = 1, multiplicity = 1:

       Center              X                  Y                   Z               Mass       
    ------------   -----------------  -----------------  -----------------  -----------------
           C         -0.008581833841    -0.002856865946    -0.191686954280    12.000000000000
           C          0.027643243366    -1.221431843494     0.510709504298    12.000000000000
           C          0.035786714843    -1.211912785626     1.902155544170    12.000000000000
           C          0.001225507649     0.002694597976     2.594383236603    12.000000000000
           C         -0.033067908567     1.214707421674     1.897608724660    12.000000000000
           C         -0.029604875065     1.218840914075     0.506121646068    12.000000000000
           C          0.004384878642    -0.005206630589    -1.658085794904    12.000000000000
           H          0.092584882018    -2.164258571208    -0.025419953252     1.007825032070
           H          0.078225530721    -2.149771936460     2.446412516629     1.007825032070
           H          0.003722291582     0.004818387533     3.680047283087     1.007825032070
           H         -0.069007831605     2.154890155704     2.438412042533     1.007825032070
           H         -0.089171898588     2.160206394545    -0.033352790967     1.007825032070
           N         -0.700323121942    -0.915501524357    -2.323546540008    14.003074004780
           N          0.701317941088     0.918307544972    -2.313850484586    14.003074004780
           H          0.664206100929     1.025463405420    -3.320976101184     1.007825032070
           H          1.346784766802     1.513152647546    -1.809954777349     1.007825032070
           H         -1.353512440996    -1.507328088299    -1.826480212843     1.007825032070
           H         -0.661288797585    -1.014659172628    -3.331395418445     1.007825032070

  Running in c1 symmetry.

  Rotational constants: A =      0.12176  B =      0.03953  C =      0.03142 [cm^-1]
  Rotational constants: A =   3650.15646  B =   1184.93459  C =    942.09541 [MHz]
  Nuclear repulsion =  416.982587511975453

  Charge       = 1
  Multiplicity = 1
  Electrons    = 64
  Nalpha       = 32
  Nbeta        = 32

  ==> Algorithm <==

  SCF Algorithm Type is DF.
  DIIS enabled.
  MOM disabled.
  Fractional occupation disabled.
  Guess Type is READ.
  Energy threshold   = 1.00e-08
  Density threshold  = 1.00e-08
  Integral threshold = 0.00e+00

  ==> Primary Basis <==

  Basis Set: 6-31G*
    Blend: 6-31G*
    Number of shells: 72
    Number of basis function: 153
    Number of Cartesian functions: 153
    Spherical Harmonics?: false
    Max angular momentum: 2

  ==> DFT Potential <==

   => B3LYP Composite Functional <= 

    B3LYP Hybrid-GGA Exchange-Correlation Functional (VWN1-RPA)

    P.J. Stephens et. al., J. Phys. Chem., 98, 11623-11627, 1994

    Points   =           5000
    Deriv    =              1
    GGA      =           TRUE
    Meta     =          FALSE

    X_LRC        =          FALSE
    X_Hybrid     =           TRUE
    X_Alpha      =   2.000000E-01
    X_Omega      =   0.000000E+00
    C_LRC        =          FALSE
    C_Hybrid     =          FALSE
    C_Alpha      =   0.000000E+00
    C_Omega      =   0.000000E+00

   => Exchange Functionals <=

    0.8000    B3_X
    0.2000      HF 

   => Correlation Functionals <=

    0.1900 VWN3RPA_C
    0.8100   LYP_C

   => Molecular Quadrature <=

    Radial Scheme    =       TREUTLER
    Pruning Scheme   =           FLAT
    Nuclear Scheme   =       TREUTLER

    BS radius alpha  =              1
    Pruning alpha    =              1
    Radial Points    =             75
    Spherical Points =            302
    Total Points     =         396962
    Total Blocks     =            359
    Max Points       =           4890
    Max Functions    =            151

   => -D3ZERO: Empirical Dispersion <=

    Grimme's -D3 (zero-damping) Dispersion Correction
    Grimme S.; Antony J.; Ehrlich S.; Krieg H. (2010), J. Chem. Phys., 132: 154104

        S6 =   1.000000E+00
        S8 =   1.703000E+00
       SR6 =   1.261000E+00
    ALPHA6 =   1.400000E+01

   => Loading Basis Set <=

    Name: (6-31G* AUX)
    Role: JKFIT
    Keyword: DF_BASIS_SCF
    atoms 1-7         entry C          line   120 file /home/raimis/opt/miniconda3/envs/htmd/share/psi4/basis/cc-pvdz-jkfit.gbs 
    atoms 8-12, 15-18 entry H          line    50 file /home/raimis/opt/miniconda3/envs/htmd/share/psi4/basis/cc-pvdz-jkfit.gbs 
    atoms 13-14       entry N          line   170 file /home/raimis/opt/miniconda3/envs/htmd/share/psi4/basis/cc-pvdz-jkfit.gbs 

  Reading orbitals from file 180, no projection.

  ==> Pre-Iterations <==

   -------------------------------------------------------
    Irrep   Nso     Nmo     Nalpha   Nbeta   Ndocc  Nsocc
   -------------------------------------------------------
     A        153     153       0       0       0       0
   -------------------------------------------------------
    Total     153     153      32      32      32       0
   -------------------------------------------------------

  ==> Integral Setup <==

  ==> DFJK: Density-Fitted J/K Matrices <==

    J tasked:                  Yes
    K tasked:                  Yes
    wK tasked:                  No
    OpenMP threads:              8
    Integrals threads:           8
    Memory (MB):              1430
    Algorithm:                Core
    Integral Cache:           NONE
    Schwarz Cutoff:          1E-12
    Fitting Condition:       1E-12

   => Auxiliary Basis Set <=

  Basis Set: (6-31G* AUX)
    Blend: CC-PVDZ-JKFIT
    Number of shells: 297
    Number of basis function: 954
    Number of Cartesian functions: 954
    Spherical Harmonics?: false
    Max angular momentum: 3

  Minimum eigenvalue in the overlap matrix is 4.8714559095E-04.
  Using Symmetric Orthogonalization.

  SCF Guess: Orbitals guess was supplied from a previous computation.

  ==> Iterations <==

                           Total Energy        Delta E     RMS |[F,P]|

   @DF-RKS iter   0:  -381.47039474174403   -3.81470e+02   5.16344e-04 
   @DF-RKS iter   1:  -381.47042394262007   -2.92009e-05   3.39376e-05 
   @DF-RKS iter   2:  -381.47042894732971   -5.00471e-06   1.95708e-05 DIIS
   @DF-RKS iter   3:  -381.47043023728446   -1.28995e-06   1.69745e-05 DIIS
   @DF-RKS iter   4:  -381.47043107941562   -8.42131e-07   2.64064e-06 DIIS
   @DF-RKS iter   5:  -381.47043111017609   -3.07605e-08   1.40608e-06 DIIS
   @DF-RKS iter   6:  -381.47043112048544   -1.03093e-08   2.61142e-07 DIIS
   @DF-RKS iter   7:  -381.47043112064443   -1.58991e-10   1.48181e-07 DIIS
   @DF-RKS iter   8:  -381.47043112070980   -6.53699e-11   2.55208e-08 DIIS
   @DF-RKS iter   9:  -381.47043112071253   -2.72848e-12   1.19887e-08 DIIS
   @DF-RKS iter  10:  -381.47043112071236    1.70530e-13   3.43027e-09 DIIS

  ==> Post-Iterations <==

    Orbital Energies (a.u.)
    -----------------------

    Doubly Occupied:                                                      

       1A    -14.568502     2A    -14.568464     3A    -10.497251  
       4A    -10.372666     5A    -10.355750     6A    -10.355705  
       7A    -10.342537     8A    -10.340140     9A    -10.340058  
      10A     -1.183960    11A     -1.092408    12A     -1.014003  
      13A     -0.926398    14A     -0.901841    15A     -0.845224  
      16A     -0.785685    17A     -0.773116    18A     -0.742421  
      19A     -0.732400    20A     -0.688988    21A     -0.668929  
      22A     -0.624933    23A     -0.617824    24A     -0.586052  
      25A     -0.578613    26A     -0.572556    27A     -0.518263  
      28A     -0.505008    29A     -0.497790    30A     -0.473197  
      31A     -0.411348    32A     -0.405370  

    Virtual:                                                              

      33A     -0.215672    34A     -0.157278    35A     -0.130410  
      36A     -0.107726    37A     -0.067018    38A     -0.061316  
      39A     -0.038739    40A     -0.034310    41A      0.007259  
      42A      0.018976    43A      0.021214    44A      0.055644  
      45A      0.061961    46A      0.083505    47A      0.128068  
      48A      0.150775    49A      0.155126    50A      0.157998  
      51A      0.201267    52A      0.242607    53A      0.298127  
      54A      0.348920    55A      0.355600    56A      0.381598  
      57A      0.387548    58A      0.397485    59A      0.422074  
      60A      0.422833    61A      0.442998    62A      0.447690  
      63A      0.452948    64A      0.471558    65A      0.471760  
      66A      0.475758    67A      0.485396    68A      0.512377  
      69A      0.527367    70A      0.532066    71A      0.539243  
      72A      0.587867    73A      0.605873    74A      0.654565  
      75A      0.656892    76A      0.682789    77A      0.687411  
      78A      0.704444    79A      0.715802    80A      0.717684  
      81A      0.738473    82A      0.768850    83A      0.775154  
      84A      0.799922    85A      0.810712    86A      0.830625  
      87A      0.850033    88A      0.942359    89A      0.962678  
      90A      0.992704    91A      1.003459    92A      1.027187  
      93A      1.060159    94A      1.074969    95A      1.144793  
      96A      1.168563    97A      1.223105    98A      1.272422  
      99A      1.286175   100A      1.307636   101A      1.321058  
     102A      1.342831   103A      1.360811   104A      1.375398  
     105A      1.444111   106A      1.454381   107A      1.470492  
     108A      1.608855   109A      1.622490   110A      1.656218  
     111A      1.666797   112A      1.736965   113A      1.755192  
     114A      1.794362   115A      1.825919   116A      1.857067  
     117A      1.902300   118A      1.907503   119A      1.959859  
     120A      1.974955   121A      1.997650   122A      2.016633  
     123A      2.044681   124A      2.065682   125A      2.124330  
     126A      2.131500   127A      2.151942   128A      2.217538  
     129A      2.224348   130A      2.263613   131A      2.353474  
     132A      2.368334   133A      2.440968   134A      2.454210  
     135A      2.489916   136A      2.519469   137A      2.552082  
     138A      2.588105   139A      2.603823   140A      2.630689  
     141A      2.737909   142A      2.883983   143A      2.981673  
     144A      3.259556   145A      3.637754   146A      3.657064  
     147A      3.914503   148A      3.948687   149A      3.964438  
     150A      4.056026   151A      4.175159   152A      4.257909  
     153A      4.546695  

    Final Occupation by Irrep:
              A 
    DOCC [    32 ]

  Energy converged.

  @DF-RKS Final Energy:  -381.47043112071236

   => Energetics <=

    Nuclear Repulsion Energy =            416.9825875119754528
    One-Electron Energy =               -1329.1834731104590901
    Two-Electron Energy =                 575.1481259612507984
    DFT Exchange-Correlation Energy =     -44.4057141334794778
    Empirical Dispersion Energy =          -0.0119573500000000
    PCM Polarization Energy =               0.0000000000000000
    EFP Energy =                            0.0000000000000000
    Total Energy =                       -381.4704311207123055



Properties will be evaluated at   0.000000,   0.000000,   0.000000 Bohr

Properties computed using the SCF density matrix

  Nuclear Dipole Moment: (a.u.)
     X:     0.0118      Y:     0.0211      Z:    -1.6578

  Electronic Dipole Moment: (a.u.)
     X:    -0.0080      Y:    -0.0183      Z:    -0.6352

  Dipole Moment: (a.u.)
     X:     0.0038      Y:     0.0028      Z:    -2.2929     Total:     2.2929

  Dipole Moment: (Debye)
     X:     0.0096      Y:     0.0070      Z:    -5.8280     Total:     5.8281


*** tstop() called on computer03 at Fri Aug 11 19:53:10 2017
Module time:
	user time   =      72.86 seconds =       1.21 minutes
	system time =       1.08 seconds =       0.02 minutes
	total time  =         46 seconds =       0.77 minutes
Total time:
	user time   =     190.48 seconds =       3.17 minutes
	system time =       2.96 seconds =       0.05 minutes
	total time  =        117 seconds =       1.95 minutes

*** tstart() called on computer03
*** at Fri Aug 11 19:53:10 2017


         ------------------------------------------------------------
                                   SCF GRAD                          
                          Rob Parrish, Justin Turney,                
                       Andy Simmonett, and Alex Sokolov              
         ------------------------------------------------------------

  ==> Geometry <==

    Molecular point group: c1
    Full point group: C1

    Geometry (in Angstrom), charge = 1, multiplicity = 1:

       Center              X                  Y                   Z               Mass       
    ------------   -----------------  -----------------  -----------------  -----------------
           C         -0.008581833841    -0.002856865946    -0.191686954280    12.000000000000
           C          0.027643243366    -1.221431843494     0.510709504298    12.000000000000
           C          0.035786714843    -1.211912785626     1.902155544170    12.000000000000
           C          0.001225507649     0.002694597976     2.594383236603    12.000000000000
           C         -0.033067908567     1.214707421674     1.897608724660    12.000000000000
           C         -0.029604875065     1.218840914075     0.506121646068    12.000000000000
           C          0.004384878642    -0.005206630589    -1.658085794904    12.000000000000
           H          0.092584882018    -2.164258571208    -0.025419953252     1.007825032070
           H          0.078225530721    -2.149771936460     2.446412516629     1.007825032070
           H          0.003722291582     0.004818387533     3.680047283087     1.007825032070
           H         -0.069007831605     2.154890155704     2.438412042533     1.007825032070
           H         -0.089171898588     2.160206394545    -0.033352790967     1.007825032070
           N         -0.700323121942    -0.915501524357    -2.323546540008    14.003074004780
           N          0.701317941088     0.918307544972    -2.313850484586    14.003074004780
           H          0.664206100929     1.025463405420    -3.320976101184     1.007825032070
           H          1.346784766802     1.513152647546    -1.809954777349     1.007825032070
           H         -1.353512440996    -1.507328088299    -1.826480212843     1.007825032070
           H         -0.661288797585    -1.014659172628    -3.331395418445     1.007825032070

  Nuclear repulsion =  416.982587511975453

  ==> Basis Set <==

  Basis Set: 6-31G*
    Blend: 6-31G*
    Number of shells: 72
    Number of basis function: 153
    Number of Cartesian functions: 153
    Spherical Harmonics?: false
    Max angular momentum: 2

  ==> DFJKGrad: Density-Fitted SCF Gradients <==

    Gradient:                    1
    J tasked:                  Yes
    K tasked:                  Yes
    wK tasked:                  No
    OpenMP threads:              8
    Integrals threads:           8
    Memory (MB):              1430
    Schwarz Cutoff:          0E+00
    Fitting Condition:       1E-12

   => Auxiliary Basis Set <=

  Basis Set: (6-31G* AUX)
    Blend: CC-PVDZ-JKFIT
    Number of shells: 297
    Number of basis function: 954
    Number of Cartesian functions: 954
    Spherical Harmonics?: false
    Max angular momentum: 3

  ==> DFT Potential <==

   => B3LYP Composite Functional <= 

    B3LYP Hybrid-GGA Exchange-Correlation Functional (VWN1-RPA)

    P.J. Stephens et. al., J. Phys. Chem., 98, 11623-11627, 1994

    Points   =           5000
    Deriv    =              1
    GGA      =           TRUE
    Meta     =          FALSE

    X_LRC        =          FALSE
    X_Hybrid     =           TRUE
    X_Alpha      =   2.000000E-01
    X_Omega      =   0.000000E+00
    C_LRC        =          FALSE
    C_Hybrid     =          FALSE
    C_Alpha      =   0.000000E+00
    C_Omega      =   0.000000E+00

   => Exchange Functionals <=

    0.8000    B3_X
    0.2000      HF 

   => Correlation Functionals <=

    0.1900 VWN3RPA_C
    0.8100   LYP_C

   => Molecular Quadrature <=

    Radial Scheme    =       TREUTLER
    Pruning Scheme   =           FLAT
    Nuclear Scheme   =       TREUTLER

    BS radius alpha  =              1
    Pruning alpha    =              1
    Radial Points    =             75
    Spherical Points =            302
    Total Points     =         396962
    Total Blocks     =            359
    Max Points       =           4890
    Max Functions    =            151


  -Total Gradient:
     Atom            X                  Y                   Z
    ------   -----------------  -----------------  -----------------
       1       -0.002346037085     0.000296975403    -0.000271185997
       2        0.001084644612     0.000013859032    -0.000048236057
       3        0.000160429805     0.000012786921    -0.000099083107
       4       -0.000091020727     0.000089673922     0.000131899825
       5       -0.000073502602    -0.000081115243     0.000048811283
       6       -0.000042466154     0.000016966055    -0.000239578648
       7        0.002464023775    -0.001877601693     0.000256816210
       8       -0.000051995077    -0.000043349719    -0.000117512780
       9       -0.000045720952    -0.000027832933    -0.000034958771
      10        0.000021717662     0.000003649964     0.000014660211
      11        0.000048452549     0.000053489264    -0.000013926932
      12        0.000276564768     0.000099835131    -0.000234662104
      13       -0.000909127067     0.000557057767     0.000203548157
      14       -0.000261775390     0.000379029744     0.000146132788
      15       -0.000054730302     0.000079958068    -0.000054439613
      16        0.000114635859     0.000381439667     0.000257656832
      17       -0.000247428280    -0.000017401779     0.000085398116
      18       -0.000045216845     0.000063218711    -0.000051172864


*** tstop() called on computer03 at Fri Aug 11 19:53:22 2017
Module time:
	user time   =      23.39 seconds =       0.39 minutes
	system time =       0.42 seconds =       0.01 minutes
	total time  =         12 seconds =       0.20 minutes
Total time:
	user time   =     213.95 seconds =       3.57 minutes
	system time =       3.38 seconds =       0.06 minutes
	total time  =        129 seconds =       2.15 minutes

			-----------------------------------------
			 OPTKING 2.0: for geometry optimizations 
			  - R.A. King,  Bethel University        
			-----------------------------------------
	At level 1: Red. Int., RFO, no backsteps, dynamic trust

	Previous internal coordinate definitions found.
	---Fragment 1 Geometry and Gradient---
	 C          -0.0162173157       -0.0053986942       -0.3622358468
	 C           0.0522381594       -2.3081716742        0.9651010966
	 C           0.0676270902       -2.2901832618        3.5945530406
	 C           0.0023158738        0.0050920522        4.9026738009
	 C          -0.0624892910        2.2954643585        3.5859607970
	 C          -0.0559451061        2.3032755272        0.9564313010
	 C           0.0082862198       -0.0098391059       -3.1333280572
	 H           0.1749600711       -4.0898559803       -0.0480367500
	 H           0.1478248297       -4.0624802081        4.6230496645
	 H           0.0070341117        0.0091054328        6.9542815211
	 H          -0.1304059028        4.0721522407        4.6079309595
	 H          -0.1685104671        4.0821984762       -0.0630276407
	 N          -1.3234189050       -1.7300471553       -4.3908666176
	 N           1.3252988407        1.7353497658       -4.3725437283
	 H           1.2551676265        1.9378449955       -6.2757353251
	 H           2.5450543692        2.8594441011       -3.4203188421
	 H          -2.5577678309       -2.8484372793       -3.4515473894
	 H          -1.2496547222       -1.9174279545       -6.2954249812
	            -0.0023460371        0.0002969754       -0.0002711860
	             0.0010846446        0.0000138590       -0.0000482361
	             0.0001604298        0.0000127869       -0.0000990831
	            -0.0000910207        0.0000896739        0.0001318998
	            -0.0000735026       -0.0000811152        0.0000488113
	            -0.0000424662        0.0000169661       -0.0002395786
	             0.0024640238       -0.0018776017        0.0002568162
	            -0.0000519951       -0.0000433497       -0.0001175128
	            -0.0000457210       -0.0000278329       -0.0000349588
	             0.0000217177        0.0000036500        0.0000146602
	             0.0000484525        0.0000534893       -0.0000139269
	             0.0002765648        0.0000998351       -0.0002346621
	            -0.0009091271        0.0005570578        0.0002035482
	            -0.0002617754        0.0003790297        0.0001461328
	            -0.0000547303        0.0000799581       -0.0000544396
	             0.0001146359        0.0003814397        0.0002576568
	            -0.0002474283       -0.0000174018        0.0000853981
	            -0.0000452168        0.0000632187       -0.0000511729

	---Fragment 1 Intrafragment Coordinates---
	 - Coordinate -           - BOHR/RAD -       - ANG/DEG -
	 R(1,2)           =         2.658810	       1.406982
	 R(1,6)           =         2.659030	       1.407098
	 R(1,7)           =         2.771204	       1.466458
	 R(2,3)           =         2.629559	       1.391502
	 R(2,8)           =         2.053268	       1.086542
	 R(3,4)           =         2.642676	       1.398444
	 R(3,9)           =         2.050676	       1.085171
	 R(4,5)           =         2.642676	       1.398444
	 R(4,10)          =         2.051617	       1.085669
	 R(5,6)           =         2.629549	       1.391498
	 R(5,11)          =         2.050769	       1.085220
	 R(6,12)          =         2.053420	       1.086623
	 R(7,13)          =         2.512759	       1.329695
	 R(7,14)          =         2.513138	       1.329895
	 R(13,17)         =         1.912259	       1.011924
	 R(13,18)         =         1.915175	       1.013467
	 R(14,15)         =         1.915218	       1.013490
	 R(14,16)         =         1.912622	       1.012116
	 B(1,2,3)         =         2.086823	     119.566128
	 B(1,2,8)         =         2.102200	     120.447171
	 B(1,6,5)         =         2.086762	     119.562639
	 B(1,6,12)        =         2.102247	     120.449908
	 B(1,7,13)        =         2.090764	     119.791938
	 B(1,7,14)        =         2.090469	     119.775056
	 B(2,1,6)         =         2.099929	     120.317078
	 B(2,1,7)         =         2.091610	     119.840453
	 B(2,3,4)         =         2.095291	     120.051319
	 B(2,3,9)         =         2.089594	     119.724928
	 B(3,2,8)         =         2.093233	     119.933421
	 B(3,4,5)         =         2.102180	     120.446064
	 B(3,4,10)        =         2.090518	     119.777858
	 B(4,3,9)         =         2.098259	     120.221378
	 B(4,5,6)         =         2.095272	     120.050266
	 B(4,5,11)        =         2.098294	     120.223367
	 B(5,4,10)        =         2.090483	     119.775875
	 B(5,6,12)        =         2.093128	     119.927386
	 B(6,1,7)         =         2.091423	     119.829703
	 B(6,5,11)        =         2.089598	     119.725164
	 B(7,13,17)       =         2.090530	     119.778562
	 B(7,13,18)       =         2.146297	     122.973757
	 B(7,14,15)       =         2.146268	     122.972084
	 B(7,14,16)       =         2.090756	     119.791509
	 B(13,7,14)       =         2.101751	     120.421477
	 B(15,14,16)      =         2.044236	     117.126078
	 B(17,13,18)      =         2.044433	     117.137391
	 D(1,2,3,4)       =         0.005659	       0.324254
	 D(1,2,3,9)       =        -3.126172	    -179.116476
	 D(1,6,5,4)       =         0.014009	       0.802652
	 D(1,6,5,11)      =        -3.120635	    -178.799239
	 D(1,7,13,17)     =         0.167310	       9.586139
	 D(1,7,13,18)     =        -3.042874	    -174.343821
	 D(1,7,14,15)     =        -3.021365	    -173.111447
	 D(1,7,14,16)     =         0.188838	      10.819623
	 D(2,1,6,5)       =        -0.015479	      -0.886860
	 D(2,1,6,12)      =        -3.107846	    -178.066446
	*D(2,1,7,13)      =         0.698132	      40.000019
	 D(2,1,7,14)      =        -2.464924	    -141.229769
	 D(2,3,4,5)       =        -0.007144	      -0.409325
	 D(2,3,4,10)      =         3.137322	     179.755313
	 D(3,2,1,6)       =         0.005627	       0.322424
	 D(3,2,1,7)       =         3.124499	     179.020602
	 D(3,4,5,6)       =        -0.002810	      -0.160997
	 D(3,4,5,11)      =         3.131799	     179.438892
	 D(4,3,2,8)       =         3.101133	     177.681841
	 D(4,5,6,12)      =         3.106637	     177.997174
	 D(5,4,3,9)       =         3.124639	     179.028603
	 D(5,6,1,7)       =        -3.134353	    -179.585178
	 D(6,1,2,8)       =        -3.089605	    -177.021333
	 D(6,1,7,13)      =        -2.466070	    -141.295406
	 D(6,1,7,14)      =         0.654059	      37.474807
	 D(6,5,4,10)      =         3.135909	     179.674368
	 D(7,1,2,8)       =         0.029266	       1.676845
	 D(7,1,6,12)      =         0.056466	       3.235236
	 D(8,2,3,9)       =        -0.030698	      -1.758889
	 D(9,3,4,10)      =        -0.014081	      -0.806759
	 D(10,4,5,11)     =        -0.012667	      -0.725743
	 D(11,5,6,12)     =        -0.028008	      -1.604717
	 D(13,7,14,15)    =         0.098627	       5.650904
	 D(13,7,14,16)    =        -2.974356	    -170.418026
	 D(14,7,13,17)    =        -2.952678	    -169.176004
	 D(14,7,13,18)    =         0.120324	       6.894036

	Current energy   :      -381.4704311207

	Energy change for the previous step:
		Projected    :        -0.0000475170
		Actual       :        -0.0000190369

	Performing BFGS update.
	Previous computed or guess Hessian on step 1.
	Steps to be used in Hessian update: 1
	Taking RFO optimization step.
	Going to follow RFO solution 1.
	Using RFO vector 1.
	Norm of target step-size    0.03264
	Projected energy change by RFO approximation:        -0.0000452821

	Back-transformation to cartesian coordinates...
	Could not converge backtransformation.
	Using first guess instead.

	Back-transformation to cartesian coordinates to adjust frozen coordinates...
	Successfully converged to displaced geometry.

	--- Internal Coordinate Step in ANG or DEG, aJ/ANG or AJ/DEG ---
	 ---------------------------------------------------------------------------
	   Coordinate                Previous        Force       Change         New 
	   ----------                --------       ------       ------       ------
	    1 R(1,2)          =      1.406982     0.001466     0.000098     1.407080
	    2 R(1,6)          =      1.407098     0.001694     0.000087     1.407185
	    3 R(1,7)          =      1.466458     0.006933     0.000689     1.467147
	    4 R(2,3)          =      1.391502     0.000065     0.000020     1.391523
	    5 R(2,8)          =      1.086542    -0.000757    -0.000094     1.086449
	    6 R(3,4)          =      1.398444    -0.001822    -0.000160     1.398284
	    7 R(3,9)          =      1.085171    -0.000044    -0.000001     1.085170
	    8 R(4,5)          =      1.398444    -0.000745    -0.000061     1.398383
	    9 R(4,10)         =      1.085669    -0.000130    -0.000013     1.085656
	   10 R(5,6)          =      1.391498    -0.000522    -0.000024     1.391473
	   11 R(5,11)         =      1.085220    -0.000316    -0.000043     1.085178
	   12 R(6,12)         =      1.086623    -0.001543    -0.000179     1.086444
	   13 R(7,13)         =      1.329695    -0.000855    -0.000096     1.329598
	   14 R(7,14)         =      1.329895    -0.002501    -0.000199     1.329696
	   15 R(13,17)        =      1.011924    -0.001752    -0.000173     1.011750
	   16 R(13,18)        =      1.013467    -0.000344    -0.000001     1.013465
	   17 R(14,15)        =      1.013490    -0.000522    -0.000019     1.013471
	   18 R(14,16)        =      1.012116    -0.003510    -0.000334     1.011782
	   19 B(1,2,3)        =    119.566128     0.000014     0.022042   119.588170
	   20 B(1,2,8)        =    120.447171    -0.000001    -0.004002   120.443169
	   21 B(1,6,5)        =    119.562639     0.000009     0.010952   119.573591
	   22 B(1,6,12)       =    120.449908     0.000008     0.013190   120.463098
	   23 B(1,7,13)       =    119.791938     0.000001    -0.006737   119.785201
	   24 B(1,7,14)       =    119.775056     0.000059     0.101117   119.876173
	   25 B(2,1,6)        =    120.317078    -0.000026    -0.030398   120.286679
	   26 B(2,1,7)        =    119.840453    -0.000019    -0.042813   119.797640
	   27 B(2,3,4)        =    120.051319    -0.000002    -0.007048   120.044271
	   28 B(2,3,9)        =    119.724928     0.000004     0.012536   119.737464
	   29 B(3,2,8)        =    119.933421    -0.000013    -0.020381   119.913039
	   30 B(3,4,5)        =    120.446064     0.000002     0.001279   120.447343
	   31 B(3,4,10)       =    119.777858    -0.000001    -0.001519   119.776338
	   32 B(4,3,9)        =    120.221378    -0.000002    -0.005973   120.215405
	   33 B(4,5,6)        =    120.050266     0.000003     0.004427   120.054693
	   34 B(4,5,11)       =    120.223367    -0.000004    -0.010341   120.213026
	   35 B(5,4,10)       =    119.775875    -0.000001     0.000423   119.776298
	   36 B(5,6,12)       =    119.927386    -0.000017    -0.033029   119.894356
	   37 B(6,1,7)        =    119.829703     0.000045     0.077166   119.906870
	   38 B(6,5,11)       =    119.725164     0.000001     0.005254   119.730418
	   39 B(7,13,17)      =    119.778562    -0.000000    -0.004547   119.774015
	   40 B(7,13,18)      =    122.973757     0.000002     0.016658   122.990415
	   41 B(7,14,15)      =    122.972084    -0.000003    -0.007016   122.965067
	   42 B(7,14,16)      =    119.791509     0.000002    -0.010191   119.781318
	   43 B(13,7,14)      =    120.421477    -0.000060    -0.084472   120.337005
	   44 B(15,14,16)     =    117.126078    -0.000000    -0.003390   117.122688
	   45 B(17,13,18)     =    117.137391    -0.000001     0.007467   117.144858
	   46 D(1,2,3,4)      =      0.324254     0.000000     0.028861     0.353115
	   47 D(1,2,3,9)      =   -179.116476     0.000001     0.083387  -179.033089
	   48 D(1,6,5,4)      =      0.802652    -0.000000    -0.029895     0.772757
	   49 D(1,6,5,11)     =   -178.799239     0.000001     0.067429  -178.731810
	   50 D(1,7,13,17)    =      9.586139     0.000001     0.128608     9.714747
	   51 D(1,7,13,18)    =   -174.343821     0.000005     0.494272  -173.849549
	   52 D(1,7,14,15)    =   -173.111447    -0.000005    -0.499175  -173.610622
	   53 D(1,7,14,16)    =     10.819623    -0.000000    -0.148284    10.671339
	   54 D(2,1,6,5)      =     -0.886860     0.000001     0.142101    -0.744760
	   55 D(2,1,6,12)     =   -178.066446     0.000003     0.344393  -177.722054
	   56 *D(2,1,7,13)    =     40.000019    -0.000000     0.000000    40.000019
	   57 D(2,1,7,14)     =   -141.229769     0.000007     0.768167  -140.461602
	   58 D(2,3,4,5)      =     -0.409325     0.000001     0.083038    -0.326287
	   59 D(2,3,4,10)     =    179.755313    -0.000000    -0.028568   179.726745
	   60 D(3,2,1,6)      =      0.322424    -0.000001    -0.141531     0.180893
	   61 D(3,2,1,7)      =    179.020602     0.000001     0.079598   179.100199
	   62 D(3,4,5,6)      =     -0.160997    -0.000001    -0.082398    -0.243395
	   63 D(3,4,5,11)     =    179.438892    -0.000002    -0.180132   179.258760
	   64 D(4,3,2,8)      =    177.681841    -0.000001    -0.028655   177.653186
	   65 D(4,5,6,12)     =    177.997174    -0.000002    -0.229709   177.767465
	   66 D(5,4,3,9)      =    179.028603     0.000000     0.028354   179.056956
	   67 D(5,6,1,7)      =   -179.585178    -0.000000    -0.077704  -179.662883
	   68 D(6,1,2,8)      =   -177.021333    -0.000000    -0.083268  -177.104601
	   69 D(6,1,7,13)     =   -141.295406     0.000002     0.218875  -141.076530
	   70 D(6,1,7,14)     =     37.474807     0.000008     0.987042    38.461849
	   71 D(6,5,4,10)     =    179.674368     0.000000     0.029205   179.703573
	   72 D(7,1,2,8)      =      1.676845     0.000002     0.137860     1.814705
	   73 D(7,1,6,12)     =      3.235236     0.000002     0.124588     3.359823
	   74 D(8,2,3,9)      =     -1.758889     0.000000     0.025871    -1.733018
	   75 D(9,3,4,10)     =     -0.806759    -0.000001    -0.083253    -0.890012
	   76 D(10,4,5,11)    =     -0.725743    -0.000001    -0.068529    -0.794272
	   77 D(11,5,6,12)    =     -1.604717    -0.000001    -0.132385    -1.737102
	   78 D(13,7,14,15)   =      5.650904     0.000002     0.274273     5.925176
	   79 D(13,7,14,16)   =   -170.418026     0.000006     0.625164  -169.792862
	   80 D(14,7,13,17)   =   -169.176004    -0.000006    -0.645471  -169.821474
	   81 D(14,7,13,18)   =      6.894036    -0.000002    -0.279807     6.614230
	 ---------------------------------------------------------------------------
	Successfully symmetrized geometry.

  ==> Convergence Check <==

  Measures of convergence in internal coordinates in au.
  Criteria marked as inactive (o), active & met (*), and active & unmet ( ).
  ---------------------------------------------------------------------------------------------
   Step     Total Energy     Delta E     MAX Force     RMS Force      MAX Disp      RMS Disp   
  ---------------------------------------------------------------------------------------------
    Convergence Criteria    1.00e-06 *    3.00e-04 *             o    1.20e-03 *             o
  ---------------------------------------------------------------------------------------------
      2    -381.47043112   -1.90e-05      8.42e-04      2.23e-04 o    1.72e-02      3.63e-03 o  ~
  ---------------------------------------------------------------------------------------------

	Writing optimization data to binary file.
	Structure for next step:
	Cartesian Geometry (in Angstrom)
	    C    -0.0094616110   0.0009839985  -0.1913272563
	    C     0.0293743592  -1.2185885685   0.5093930774
	    C     0.0390819550  -1.2115121324   1.9008641270
	    C     0.0028869174   0.0017453275   2.5950500073
	    C    -0.0363588722   1.2147404163   1.9003712479
	    C    -0.0345090811   1.2213125218   0.5089149476
	    C     0.0001385454  -0.0004824188  -1.6584424138
	    H     0.0960662509  -2.1604089513  -0.0280982892
	    H     0.0849017489  -2.1500859482   2.4436109272
	    H     0.0061412991   0.0020453459   3.6807012475
	    H    -0.0764965588   2.1536973604   2.4429202939
	    H    -0.1017016700   2.1632966698  -0.0282180300
	    N    -0.7053723040  -0.9109362953  -2.3226411481
	    N     0.7063649666   0.9135731088  -2.3171072569
	    H     0.6727344358   1.0155842675  -3.3248698913
	    H     1.3590692376   1.5018180379  -1.8154622511
	    H    -1.3582086737  -1.5020694248  -1.8246397798
	    H    -0.6633277955  -1.0145592642  -3.3299180891
			--------------------------
			 OPTKING Finished Execution 
			--------------------------

    Structure for next step:
    Molecular point group: c1
    Full point group: C1

    Geometry (in Angstrom), charge = 1, multiplicity = 1:

    C           -0.008859142895    -0.000211147887    -0.191403332539
    C            0.029976827370    -1.219783714884     0.509317001143
    C            0.039684423117    -1.212707278871     1.900788050735
    C            0.003489385472     0.000550181042     2.594973931086
    C           -0.035756404106     1.213545269826     1.900295171684
    C           -0.033906613003     1.220117375374     0.508838871302
    C            0.000741013540    -0.001677565195    -1.658518490062
    H            0.096668718985    -2.161604097763    -0.028174365429
    H            0.085504216997    -2.151281094645     2.443534850939
    H            0.006743767236     0.000850199419     3.680625171279
    H           -0.075894090672     2.152502213991     2.442844217681
    H           -0.101099201868     2.162101523397    -0.028294106299
    N           -0.704769835908    -0.912131441739    -2.322717224333
    N            0.706967434745     0.912377962341    -2.317183333174
    H            0.673336903890     1.014389121072    -3.324945967524
    H            1.359671705683     1.500622891476    -1.815538327372
    H           -1.357606205615    -1.503264571263    -1.824715856091
    H           -0.662725327342    -1.015754410634    -3.329994165404

gradient() will perform analytic gradient computation.

*** tstart() called on computer03
*** at Fri Aug 11 19:53:22 2017

   => Loading Basis Set <=

    Name: 6-31G*
    Role: ORBITAL
    Keyword: BASIS
    atoms 1-7         entry C          line   102 file /home/raimis/opt/miniconda3/envs/htmd/share/psi4/basis/6-31gs.gbs 
    atoms 8-12, 15-18 entry H          line    35 file /home/raimis/opt/miniconda3/envs/htmd/share/psi4/basis/6-31gs.gbs 
    atoms 13-14       entry N          line   119 file /home/raimis/opt/miniconda3/envs/htmd/share/psi4/basis/6-31gs.gbs 


         ---------------------------------------------------------
                                   SCF
            by Justin Turney, Rob Parrish, and Andy Simmonett
                              RKS Reference
                        8 Threads,   1907 MiB Core
         ---------------------------------------------------------

  ==> Geometry <==

    Molecular point group: c1
    Full point group: C1

    Geometry (in Angstrom), charge = 1, multiplicity = 1:

       Center              X                  Y                   Z               Mass       
    ------------   -----------------  -----------------  -----------------  -----------------
           C         -0.008859142895    -0.000211147887    -0.191403332539    12.000000000000
           C          0.029976827370    -1.219783714884     0.509317001143    12.000000000000
           C          0.039684423117    -1.212707278871     1.900788050735    12.000000000000
           C          0.003489385472     0.000550181042     2.594973931086    12.000000000000
           C         -0.035756404106     1.213545269826     1.900295171684    12.000000000000
           C         -0.033906613003     1.220117375374     0.508838871302    12.000000000000
           C          0.000741013540    -0.001677565195    -1.658518490062    12.000000000000
[...]
	 H           2.5627925747        2.8393939821       -3.4332402342
	 H          -2.5677389696       -2.8403819103       -3.4467429531
	 H          -1.2580119142       -1.9183693981       -6.2924099447
	            -0.0015421832        0.0002275479       -0.0000327374
	             0.0008086047        0.0000010742        0.0000335669
	            -0.0000130264        0.0000091478        0.0000003437
	             0.0000109091       -0.0000047715       -0.0000046475
	             0.0000103136       -0.0000024344       -0.0000024571
	            -0.0000110785        0.0000230033        0.0000196420
	             0.0014988694       -0.0008211152        0.0000352028
	            -0.0000077762        0.0000122307       -0.0000094097
	             0.0000162949        0.0000008232        0.0000011253
	            -0.0000044732       -0.0000032082       -0.0000032127
	            -0.0000057012       -0.0000010638       -0.0000016544
	            -0.0000087422       -0.0000123059       -0.0000037161
	            -0.0006654531        0.0005306497       -0.0000206125
	            -0.0000368158        0.0000116059       -0.0000176065
	            -0.0000067139        0.0000055508       -0.0000056341
	            -0.0000151763       -0.0000109597       -0.0000019615
	            -0.0000144036        0.0000250637        0.0000029146
	            -0.0000125605        0.0000101374       -0.0000092348

	---Fragment 1 Intrafragment Coordinates---
	 - Coordinate -           - BOHR/RAD -       - ANG/DEG -
	 R(1,2)           =         2.659117	       1.407144
	 R(1,6)           =         2.659102	       1.407136
	 R(1,7)           =         2.773045	       1.467432
	 R(2,3)           =         2.629621	       1.391536
	 R(2,8)           =         2.053024	       1.086414
	 R(3,4)           =         2.642269	       1.398228
	 R(3,9)           =         2.050660	       1.085163
	 R(4,5)           =         2.642515	       1.398359
	 R(4,10)          =         2.051586	       1.085653
	 R(5,6)           =         2.629472	       1.391457
	 R(5,11)          =         2.050660	       1.085163
	 R(6,12)          =         2.052996	       1.086399
	 R(7,13)          =         2.512542	       1.329580
	 R(7,14)          =         2.512503	       1.329559
	 R(13,17)         =         1.911849	       1.011707
	 R(13,18)         =         1.915105	       1.013430
	 R(14,15)         =         1.915115	       1.013435
	 R(14,16)         =         1.911814	       1.011689
	 B(1,2,3)         =         2.087221	     119.588965
	 B(1,2,8)         =         2.102394	     120.458277
	 B(1,6,5)         =         2.087001	     119.576341
	 B(1,6,12)        =         2.102410	     120.459219
	 B(1,7,13)        =         2.091096	     119.810970
	 B(1,7,14)        =         2.091984	     119.861849
	 B(2,1,6)         =         2.099343	     120.283506
	 B(2,1,7)         =         2.090949	     119.802571
	 B(2,3,4)         =         2.095131	     120.042150
	 B(2,3,9)         =         2.089872	     119.740861
	 B(3,2,8)         =         2.092552	     119.894406
	 B(3,4,5)         =         2.102255	     120.450317
	 B(3,4,10)        =         2.090475	     119.775395
	 B(4,3,9)         =         2.098128	     120.213899
	 B(4,5,6)         =         2.095343	     120.054284
	 B(4,5,11)        =         2.098045	     120.209120
	 B(5,4,10)        =         2.090455	     119.774271
	 B(5,6,12)        =         2.092577	     119.895814
	 B(6,1,7)         =         2.092779	     119.907403
	 B(6,5,11)        =         2.089762	     119.734569
	 B(7,13,17)       =         2.090508	     119.777297
	 B(7,13,18)       =         2.146673	     122.995314
	 B(7,14,15)       =         2.146135	     122.964465
	 B(7,14,16)       =         2.090492	     119.776354
	 B(13,7,14)       =         2.100053	     120.324163
	 B(15,14,16)      =         2.044337	     117.131872
	 B(17,13,18)      =         2.044495	     117.140947
	 D(1,2,3,4)       =         0.006648	       0.380923
	 D(1,2,3,9)       =        -3.123806	    -178.980926
	 D(1,6,5,4)       =         0.012510	       0.716782
	 D(1,6,5,11)      =        -3.120064	    -178.766483
	 D(1,7,13,17)     =         0.167955	       9.623115
	 D(1,7,13,18)     =        -3.034368	    -173.856498
	 D(1,7,14,15)     =        -3.029657	    -173.586554
	 D(1,7,14,16)     =         0.185625	      10.635546
	 D(2,1,6,5)       =        -0.011110	      -0.636546
	 D(2,1,6,12)      =        -3.100073	    -177.621085
	*D(2,1,7,13)      =         0.698132	      40.000019
	 D(2,1,7,14)      =        -2.454454	    -140.629837
	 D(2,3,4,5)       =        -0.005273	      -0.302125
	 D(2,3,4,10)      =         3.137144	     179.745106
	 D(3,2,1,6)       =         0.001515	       0.086778
	 D(3,2,1,7)       =         3.126880	     179.157050
	 D(3,4,5,6)       =        -0.004421	      -0.253281
	 D(3,4,5,11)      =         3.128110	     179.227510
	 D(4,3,2,8)       =         3.099984	     177.616026
	 D(4,5,6,12)      =         3.101773	     177.718530
	 D(5,4,3,9)       =         3.125129	     179.056678
	 D(5,6,1,7)       =        -3.136459	    -179.705841
	 D(6,1,2,8)       =        -3.091544	    -177.132445
	 D(6,1,7,13)      =        -2.459626	    -140.926179
	 D(6,1,7,14)      =         0.670974	      38.443965
	 D(6,5,4,10)      =         3.136348	     179.699489
	 D(7,1,2,8)       =         0.033821	       1.937827
	 D(7,1,6,12)      =         0.057764	       3.309620
	 D(8,2,3,9)       =        -0.030470	      -1.745824
	 D(9,3,4,10)      =        -0.015640	      -0.896091
	 D(10,4,5,11)     =        -0.014307	      -0.819720
	 D(11,5,6,12)     =        -0.030800	      -1.764735
	 D(13,7,14,15)    =         0.100886	       5.780315
	 D(13,7,14,16)    =        -2.967018	    -169.997585
	 D(14,7,13,17)    =        -2.962593	    -169.744076
	 D(14,7,13,18)    =         0.118269	       6.776310

	Current energy   :      -381.4704484551

	Energy change for the previous step:
		Projected    :        -0.0000029730
		Actual       :        -0.0000007391
	Energy ratio indicates iffy step: Trust radius decreased to 1.250e-01.


	Performing BFGS update.
	Previous computed or guess Hessian on step 1.
	Steps to be used in Hessian update: 3 2
	Taking RFO optimization step.
	Going to follow RFO solution 1.
	Using RFO vector 1.
	Norm of target step-size    0.00292
	Projected energy change by RFO approximation:        -0.0000003216

	Back-transformation to cartesian coordinates...
	Successfully converged to displaced geometry.

	Back-transformation to cartesian coordinates to adjust frozen coordinates...
	Successfully converged to displaced geometry.

	--- Internal Coordinate Step in ANG or DEG, aJ/ANG or AJ/DEG ---
	 ---------------------------------------------------------------------------
	   Coordinate                Previous        Force       Change         New 
	   ----------                --------       ------       ------       ------
	    1 R(1,2)          =      1.407144    -0.000163    -0.000015     1.407129
	    2 R(1,6)          =      1.407136    -0.000116    -0.000026     1.407110
	    3 R(1,7)          =      1.467432    -0.000111     0.000013     1.467445
	    4 R(2,3)          =      1.391536     0.000021     0.000005     1.391540
	    5 R(2,8)          =      1.086414     0.000058     0.000005     1.086419
	    6 R(3,4)          =      1.398228     0.000077     0.000005     1.398233
	    7 R(3,9)          =      1.085163    -0.000009    -0.000002     1.085160
	    8 R(4,5)          =      1.398359    -0.000010    -0.000002     1.398356
	    9 R(4,10)         =      1.085653     0.000017     0.000003     1.085655
	   10 R(5,6)          =      1.391457     0.000010    -0.000000     1.391456
	   11 R(5,11)         =      1.085163     0.000008    -0.000000     1.085162
	   12 R(6,12)         =      1.086399     0.000073     0.000009     1.086407
	   13 R(7,13)         =      1.329580     0.000055     0.000003     1.329583
	   14 R(7,14)         =      1.329559     0.000135    -0.000002     1.329557
	   15 R(13,17)        =      1.011707     0.000026    -0.000001     1.011706
	   16 R(13,18)        =      1.013430    -0.000053    -0.000010     1.013420
	   17 R(14,15)        =      1.013435    -0.000043    -0.000009     1.013427
	   18 R(14,16)        =      1.011689     0.000137     0.000009     1.011698
	   19 B(1,2,3)        =    119.588965    -0.000000    -0.001185   119.587780
	   20 B(1,2,8)        =    120.458277     0.000001     0.007228   120.465505
	   21 B(1,6,5)        =    119.576341    -0.000000    -0.000279   119.576063
	   22 B(1,6,12)       =    120.459219     0.000001     0.001964   120.461182
	   23 B(1,7,13)       =    119.810970    -0.000001     0.001993   119.812963
	   24 B(1,7,14)       =    119.861849    -0.000002    -0.010002   119.851847
	   25 B(2,1,6)        =    120.283506     0.000001     0.001942   120.285448
	   26 B(2,1,7)        =    119.802571     0.000000     0.001241   119.803812
	   27 B(2,3,4)        =    120.042150    -0.000000    -0.000135   120.042015
	   28 B(2,3,9)        =    119.740861    -0.000000    -0.000381   119.740479
	   29 B(3,2,8)        =    119.894406    -0.000001    -0.005762   119.888644
	   30 B(3,4,5)        =    120.450317    -0.000000     0.000004   120.450322
	   31 B(3,4,10)       =    119.775395     0.000000     0.001074   119.776469
	   32 B(4,3,9)        =    120.213899     0.000000     0.000623   120.214522
	   33 B(4,5,6)        =    120.054284    -0.000000    -0.000417   120.053867
	   34 B(4,5,11)       =    120.209120     0.000000    -0.000248   120.208872
	   35 B(5,4,10)       =    119.774271    -0.000000    -0.001091   119.773180
	   36 B(5,6,12)       =    119.895814    -0.000001    -0.001670   119.894144
	   37 B(6,1,7)        =    119.907403    -0.000001    -0.003256   119.904147
	   38 B(6,5,11)       =    119.734569     0.000000     0.000699   119.735269
	   39 B(7,13,17)      =    119.777297     0.000001     0.006682   119.783979
	   40 B(7,13,18)      =    122.995314    -0.000001    -0.000411   122.994903
	   41 B(7,14,15)      =    122.964465    -0.000000    -0.001494   122.962972
	   42 B(7,14,16)      =    119.776354     0.000001     0.002177   119.778531
	   43 B(13,7,14)      =    120.324163     0.000003     0.008473   120.332636
	   44 B(15,14,16)     =    117.131872    -0.000000    -0.000880   117.130992
	   45 B(17,13,18)     =    117.140947    -0.000000    -0.001269   117.139678
	   46 D(1,2,3,4)      =      0.380923    -0.000000    -0.013292     0.367630
	   47 D(1,2,3,9)      =   -178.980926    -0.000000    -0.024463  -179.005389
	   48 D(1,6,5,4)      =      0.716782     0.000000     0.001478     0.718259
	   49 D(1,6,5,11)     =   -178.766483     0.000000    -0.002904  -178.769387
	   50 D(1,7,13,17)    =      9.623115    -0.000000    -0.031545     9.591570
	   51 D(1,7,13,18)    =   -173.856498     0.000000     0.070506  -173.785992
	   52 D(1,7,14,15)    =   -173.586554    -0.000000    -0.046935  -173.633489
	   53 D(1,7,14,16)    =     10.635546    -0.000000    -0.043641    10.591905
	   54 D(2,1,6,5)      =     -0.636546    -0.000000    -0.021632    -0.658178
	   55 D(2,1,6,12)     =   -177.621085    -0.000000    -0.021910  -177.642996
	   56 *D(2,1,7,13)    =     40.000019     0.000000     0.000000    40.000019
	   57 D(2,1,7,14)     =   -140.629837     0.000000     0.050548  -140.579289
	   58 D(2,3,4,5)      =     -0.302125    -0.000000    -0.006783    -0.308908
	   59 D(2,3,4,10)     =    179.745106     0.000000     0.008784   179.753890
	   60 D(3,2,1,6)      =      0.086778     0.000000     0.027548     0.114326
	   61 D(3,2,1,7)      =    179.157050     0.000000     0.022333   179.179383
	   62 D(3,4,5,6)      =     -0.253281     0.000000     0.012762    -0.240519
	   63 D(3,4,5,11)     =    179.227510     0.000000     0.017169   179.244679
	   64 D(4,3,2,8)      =    177.616026    -0.000000    -0.006452   177.609573
	   65 D(4,5,6,12)     =    177.718530     0.000000     0.001865   177.720395
	   66 D(5,4,3,9)      =    179.056678     0.000000     0.004435   179.061112
	   67 D(5,6,1,7)      =   -179.705841    -0.000000    -0.016454  -179.722295
	   68 D(6,1,2,8)      =   -177.132445     0.000000     0.021035  -177.111410
	   69 D(6,1,7,13)     =   -140.926179    -0.000000    -0.005146  -140.931325
	   70 D(6,1,7,14)     =     38.443965     0.000000     0.045402    38.489367
	   71 D(6,5,4,10)     =    179.699489    -0.000000    -0.002804   179.696685
	   72 D(7,1,2,8)      =      1.937827     0.000000     0.015820     1.953647
	   73 D(7,1,6,12)     =      3.309620    -0.000000    -0.016732     3.292888
	   74 D(8,2,3,9)      =     -1.745824    -0.000000    -0.017623    -1.763447
	   75 D(9,3,4,10)     =     -0.896091     0.000000     0.020002    -0.876089
	   76 D(10,4,5,11)    =     -0.819720     0.000000     0.001603    -0.818117
	   77 D(11,5,6,12)    =     -1.764735    -0.000000    -0.002517    -1.767252
	   78 D(13,7,14,15)   =      5.780315     0.000000     0.003837     5.784152
	   79 D(13,7,14,16)   =   -169.997585     0.000000     0.007131  -169.990454
	   80 D(14,7,13,17)   =   -169.744076    -0.000001    -0.082221  -169.826297
	   81 D(14,7,13,18)   =      6.776310     0.000000     0.019830     6.796140
	 ---------------------------------------------------------------------------
	Successfully symmetrized geometry.

  ==> Convergence Check <==

  Measures of convergence in internal coordinates in au.
  Criteria marked as inactive (o), active & met (*), and active & unmet ( ).
  ---------------------------------------------------------------------------------------------
   Step     Total Energy     Delta E     MAX Force     RMS Force      MAX Disp      RMS Disp   
  ---------------------------------------------------------------------------------------------
    Convergence Criteria    1.00e-06 *    3.00e-04 *             o    1.20e-03 *             o
  ---------------------------------------------------------------------------------------------
      4    -381.47044846   -7.39e-07 *    4.02e-05 *    1.15e-05 o    1.44e-03      3.24e-04 o  ~
  ---------------------------------------------------------------------------------------------


  **** Optimization is complete! (in 4 steps) ****

  ==> Optimization Summary <==

  Measures of convergence in internal coordinates in au.
  --------------------------------------------------------------------------------------------------------------- ~
   Step         Total Energy             Delta E       MAX Force       RMS Force        MAX Disp        RMS Disp  ~
  --------------------------------------------------------------------------------------------------------------- ~
      1    -381.470412083854   -381.470412083854      0.00126537      0.00028600      0.04407313      0.00854907  ~
      2    -381.470431120712     -0.000019036858      0.00084155      0.00022323      0.01722713      0.00362871  ~
      3    -381.470447715951     -0.000016595239      0.00017749      0.00004262      0.00357308      0.00092923  ~
      4    -381.470448455097     -0.000000739146      0.00004017      0.00001149      0.00143503      0.00032395  ~
  --------------------------------------------------------------------------------------------------------------- ~

	Writing optimization data to binary file.
	Final energy is   -381.4704484550971
	Final (previous) structure:
	Cartesian Geometry (in Angstrom)
	    C    -0.0074857948  -0.0005489795  -0.1912966014
	    C     0.0306133527  -1.2200560220   0.5097063389
	    C     0.0406542390  -1.2127096561   1.9011862259
	    C     0.0049348103   0.0006703329   2.5950706543
	    C    -0.0346742774   1.2135126630   1.9001954533
	    C    -0.0334572202   1.2198148545   0.5087537257
	    C     0.0005027479  -0.0022528339  -1.6587058471
	    H     0.0975588911  -2.1620966982  -0.0272967965
	    H     0.0867621951  -2.1511323392   2.4441547778
	    H     0.0087488428   0.0012137818   3.6807163319
	    H    -0.0749504657   2.1525061321   2.4426407018
	    H    -0.1017297134   2.1615807256  -0.0285338477
	    N    -0.7066648681  -0.9116909857  -2.3224974721
	    N     0.7044732993   0.9129268526  -2.3179478272
	    H     0.6694364950   1.0151264301  -3.3256079595
	    H     1.3561714209   1.5025425815  -1.8167924836
	    H    -1.3587889403  -1.5030653706  -1.8239378146
	    H    -0.6657112331  -1.0151573632  -3.3297999298
	Saving final (previous) structure.
			--------------------------
			 OPTKING Finished Execution 
			--------------------------

    Final optimized geometry and variables:
    Molecular point group: c1
    Full point group: C1

    Geometry (in Angstrom), charge = 1, multiplicity = 1:

    C           -0.007485794810    -0.000548979529    -0.191296601362
    C            0.030613352663    -1.220056022046     0.509706338927
    C            0.040654238965    -1.212709656074     1.901186225876
    C            0.004934810332     0.000670332946     2.595070654268
    C           -0.034674277405     1.213512662963     1.900195453259
    C           -0.033457220207     1.219814854455     0.508753725700
    C            0.000502747870    -0.002252833851    -1.658705847148
    H            0.097558891059    -2.162096698163    -0.027296796516
    H            0.086762195070    -2.151132339169     2.444154777844
    H            0.008748842815     0.001213781751     3.680716331930
    H           -0.074950465743     2.152506132092     2.442640701767
    H           -0.101729713409     2.161580725610    -0.028533847658
    N           -0.706664868063    -0.911690985705    -2.322497472060
    N            0.704473299301     0.912926852638    -2.317947827201
    H            0.669436495016     1.015126430125    -3.325607959473
    H            1.356171420872     1.502542581548    -1.816792483555
    H           -1.358788940322    -1.503065370603    -1.823937814639
    H           -0.665711233134    -1.015157363152    -3.329799929835

	Cleaning optimization helper files.


Properties will be evaluated at   0.000000,   0.000000,   0.000000 Bohr

Properties computed using the  density matrix

  Nuclear Dipole Moment: (a.u.)
     X:     0.0164      Y:     0.0014      Z:    -1.6594

  Electronic Dipole Moment: (a.u.)
     X:    -0.0092      Y:    -0.0049      Z:    -0.6385

  Dipole Moment: (a.u.)
     X:     0.0072      Y:    -0.0035      Z:    -2.2979     Total:     2.2979

  Dipole Moment: (Debye)
     X:     0.0184      Y:    -0.0088      Z:    -5.8406     Total:     5.8406

  Quadrupole Moment: (Debye Ang)
    XX:   -49.5488     YY:   -37.8033     ZZ:   -13.1581
    XY:     5.8972     XZ:     0.0155     YZ:     0.0345

  Traceless Quadrupole Moment: (Debye Ang)
    XX:   -16.0454     YY:    -4.2999     ZZ:    20.3453
    XY:     5.8972     XZ:     0.0155     YZ:     0.0345

  Mulliken Charges: (a.u.)
   Center  Symbol    Alpha    Beta     Spin     Total
       1     C     2.96014  2.96014  0.00000  0.07972
       2     C     3.08109  3.08109  0.00000 -0.16219
       3     C     3.06242  3.06242  0.00000 -0.12484
       4     C     3.05159  3.05159  0.00000 -0.10317
       5     C     3.06266  3.06266  0.00000 -0.12531
       6     C     3.08138  3.08138  0.00000 -0.16276
       7     C     2.72412  2.72412  0.00000  0.55177
       8     H     0.41400  0.41400  0.00000  0.17200
       9     H     0.40554  0.40554  0.00000  0.18892
      10     H     0.40407  0.40407  0.00000  0.19187
      11     H     0.40554  0.40554  0.00000  0.18892
      12     H     0.41393  0.41393  0.00000  0.17215
      13     N     3.86153  3.86153  0.00000 -0.72306
      14     N     3.86198  3.86198  0.00000 -0.72397
      15     H     0.30565  0.30565  0.00000  0.38870
      16     H     0.29941  0.29941  0.00000  0.40118
      17     H     0.29928  0.29928  0.00000  0.40144
      18     H     0.30568  0.30568  0.00000  0.38865

   Total alpha = 32.00000, Total beta = 32.00000, Total charge =  1.00000


*** Psi4 exiting successfully. Buy a developer a beer!
