    -----------------------------------------------------------------------
          Psi4: An Open-Source Ab Initio Electronic Structure Package
                              Psi4 (no tag) Driver

                          Git: Rev {detached?}  

    J. M. Turney, A. C. Simmonett, R. M. Parrish, E. G. Hohenstein,
    F. A. Evangelista, J. T. Fermann, B. J. Mintz, L. A. Burns, J. J. Wilke,
    M. L. Abrams, N. J. Russ, M. L. Leininger, C. L. Janssen, E. T. Seidl,
    W. D. Allen, H. F. Schaefer, R. A. King, E. F. Valeev, C. D. Sherrill,
    and T. D. Crawford, WIREs Comput. Mol. Sci. 2, 556-565 (2012)
    (doi: 10.1002/wcms.93)

                         Additional Contributions by
    A. E. DePrince, M. Saitow, U. Bozkaya, A. Yu. Sokolov
    -----------------------------------------------------------------------


    Psi4 started on: Tue Jul  5 16:41:33 2016

    Process ID:  29157
    PSI4DATADIR: /export131/home/mjharvey/miniconda3/share
    Memory level set to 256.000 MB

  ==> Input File <==

--------------------------------------------------------------------------
set {
	reference rhf
	basis 6-31G*
}


set_num_threads( 1 )
memory 2 gb

molecule MOL {
0 1

H	 0.075655	 1.724700	 0.560390
N	 -0.456516	 0.876527	 0.541107
C	 0.411825	 -0.271767	 0.350028
H	 -1.096509	 0.942907	 -0.226429
C	 0.971803	 -0.268062	 -1.056935
H	 1.245876	 -0.313000	 1.051925
H	 -0.173567	 -1.175924	 0.486406
O	 -0.088814	 -0.446451	 -1.951562
H	 1.476952	 0.676258	 -1.258733
H	 1.695616	 -1.072886	 -1.164576
C	 -0.363894	 -1.776041	 -2.258307
H	 -0.454635	 -2.315904	 -1.325563
H	 -1.296245	 -1.872096	 -2.811911
H	 0.434848	 -2.221542	 -2.847671

	symmetry c1
}
set optking {
	frozen_dihedral = ("
		8 5 3 6,
		6 3 2 4,
		5 8 11 13
	")
}

ee = energy('scf')
oeprop('DIPOLE', 'QUADRUPOLE', 'MULLIKEN_CHARGES')
f=open( 'psi4out.xyz', 'w' )
f.write( "14  " )
f.write( str(ee) + "\n" )
f.write( MOL.save_string_xyz() )
f.close()
--------------------------------------------------------------------------

  Memory set to   2.000 GiB by Python script.

*** tstart() called on cx1-3-6-4.cx1.hpc.ic.ac.uk
*** at Tue Jul  5 16:41:33 2016


         ---------------------------------------------------------
                                   SCF
            by Justin Turney, Rob Parrish, and Andy Simmonett
                              RHF Reference
                        1 Threads,   2000 MiB Core
         ---------------------------------------------------------

  ==> Geometry <==

    Molecular point group: c1
    Full point group: C1

    Geometry (in Angstrom), charge = 0, multiplicity = 1:

       Center              X                  Y                   Z               Mass       
    ------------   -----------------  -----------------  -----------------  -----------------
           H         -0.008888273003     2.102073571230     1.450452856344     1.007825032070
           N         -0.541059273003     1.253900571230     1.431169856344    14.003074004780
           C          0.327281726997     0.105606571230     1.240090856344    12.000000000000
           H         -1.181052273003     1.320280571230     0.663633856344     1.007825032070
           C          0.887259726997     0.109311571230    -0.166872143656    12.000000000000
           H          1.161332726997     0.064373571230     1.941987856344     1.007825032070
           H         -0.258110273003    -0.798550428770     1.376468856344     1.007825032070
           O         -0.173357273003    -0.069077428770    -1.061499143656    15.994914619560
           H          1.392408726997     1.053631571230    -0.368670143656     1.007825032070
           H          1.611072726997    -0.695512428770    -0.274513143656     1.007825032070
           C         -0.448437273003    -1.398667428770    -1.368244143656    12.000000000000
           H         -0.539178273003    -1.938530428770    -0.435500143656     1.007825032070
           H         -1.380788273003    -1.494722428770    -1.921848143656     1.007825032070
           H          0.350304726997    -1.844168428770    -1.957608143656     1.007825032070

  Running in c1 symmetry.

  Rotational constants: A =      0.35700  B =      0.10049  C =      0.09581 [cm^-1]
  Rotational constants: A =  10702.50177  B =   3012.46523  C =   2872.45296 [MHz]
  Nuclear repulsion =  197.765591086504685

  Charge       = 0
  Multiplicity = 1
  Electrons    = 42
  Nalpha       = 21
  Nbeta        = 21

  ==> Algorithm <==

  SCF Algorithm Type is DF.
  DIIS enabled.
  MOM disabled.
  Fractional occupation disabled.
  Guess Type is CORE.
  Energy threshold   = 1.00e-06
  Density threshold  = 1.00e-06
  Integral threshold = 0.00e+00

  ==> Primary Basis <==

  Basis Set: 6-31G*
    Number of shells: 48
    Number of basis function: 93
    Number of Cartesian functions: 93
    Spherical Harmonics?: false
    Max angular momentum: 2

  ==> Pre-Iterations <==

   -------------------------------------------------------
    Irrep   Nso     Nmo     Nalpha   Nbeta   Ndocc  Nsocc
   -------------------------------------------------------
     A         93      93       0       0       0       0
   -------------------------------------------------------
    Total      93      93      21      21      21       0
   -------------------------------------------------------

 OEINTS: Overlap, kinetic, potential, dipole, and quadrupole integrals
         stored in file 35.

  ==> Integral Setup <==

  ==> DFJK: Density-Fitted J/K Matrices <==

    J tasked:                  Yes
    K tasked:                  Yes
    wK tasked:                  No
    OpenMP threads:              1
    Integrals threads:           1
    Memory (MB):              1430
    Algorithm:                Core
    Integral Cache:           NONE
    Schwarz Cutoff:          1E-12
    Fitting Condition:       1E-12

   => Auxiliary Basis Set <=

  Basis Set: 
    Number of shells: 201
    Number of basis function: 630
    Number of Cartesian functions: 630
    Spherical Harmonics?: false
    Max angular momentum: 3

  Minimum eigenvalue in the overlap matrix is 4.9177242247E-03.
  Using Symmetric Orthogonalization.
  SCF Guess: Core (One-Electron) Hamiltonian.

  ==> Iterations <==

                           Total Energy        Delta E     RMS |[F,P]|

   @DF-RHF iter   1:  -201.87628449506866   -2.01876e+02   8.00201e-02 
   @DF-RHF iter   2:  -161.57824061592322    4.02980e+01   7.48101e-02 DIIS
   @DF-RHF iter   3:  -223.37863697613528   -6.18004e+01   5.11885e-02 DIIS
   @DF-RHF iter   4:  -233.18911695346696   -9.81048e+00   4.79596e-02 DIIS
   @DF-RHF iter   5:  -247.83318690343140   -1.46441e+01   8.10423e-03 DIIS
   @DF-RHF iter   6:  -248.06052905119429   -2.27342e-01   3.28031e-03 DIIS
   @DF-RHF iter   7:  -248.10494467741228   -4.44156e-02   1.40856e-03 DIIS
   @DF-RHF iter   8:  -248.11529611471656   -1.03514e-02   3.84922e-04 DIIS
   @DF-RHF iter   9:  -248.11622169895804   -9.25584e-04   1.05273e-04 DIIS
   @DF-RHF iter  10:  -248.11630327595105   -8.15770e-05   3.07086e-05 DIIS
   @DF-RHF iter  11:  -248.11630904493910   -5.76899e-06   1.06135e-05 DIIS
   @DF-RHF iter  12:  -248.11631000264151   -9.57702e-07   2.91258e-06 DIIS
   @DF-RHF iter  13:  -248.11631006664868   -6.40072e-08   6.44891e-07 DIIS

  ==> Post-Iterations <==

    Orbital Energies (a.u.)
    -----------------------

    Doubly Occupied:                                                      

       1A    -20.559070     2A    -15.527554     3A    -11.270820  
       4A    -11.268432     5A    -11.241644     6A     -1.386101  
       7A     -1.175578     8A     -0.996085     9A     -0.920508  
      10A     -0.818544    11A     -0.693457    12A     -0.669377  
      13A     -0.642487    14A     -0.634900    15A     -0.574949  
      16A     -0.563973    17A     -0.539653    18A     -0.503872  
      19A     -0.471022    20A     -0.429609    21A     -0.369856  

    Virtual:                                                              

      22A      0.231407    23A      0.255481    24A      0.282413  
      25A      0.285532    26A      0.299311    27A      0.313558  
      28A      0.327903    29A      0.336520    30A      0.366334  
      31A      0.387767    32A      0.420983    33A      0.437974  
      34A      0.468530    35A      0.747613    36A      0.760780  
      37A      0.780306    38A      0.789517    39A      0.801398  
      40A      0.845585    41A      0.864667    42A      0.915147  
      43A      0.971881    44A      1.010999    45A      1.080610  
      46A      1.083439    47A      1.120087    48A      1.128103  
      49A      1.143555    50A      1.147633    51A      1.178218  
      52A      1.216665    53A      1.228680    54A      1.240537  
      55A      1.261683    56A      1.269020    57A      1.317299  
      58A      1.427876    59A      1.451961    60A      1.571167  
      61A      1.665497    62A      1.674541    63A      1.722526  
      64A      1.788539    65A      1.874815    66A      1.932989  
      67A      1.983448    68A      2.131686    69A      2.153136  
      70A      2.268228    71A      2.316667    72A      2.365796  
      73A      2.383077    74A      2.437361    75A      2.468548  
      76A      2.473142    77A      2.517895    78A      2.565816  
      79A      2.685253    80A      2.698951    81A      2.761970  
      82A      2.809215    83A      2.890977    84A      2.929270  
      85A      3.030524    86A      3.069355    87A      3.144021  
      88A      3.303843    89A      4.230975    90A      4.386973  
      91A      4.665618    92A      4.708004    93A      4.897164  

    Final Occupation by Irrep:
              A 
    DOCC [    21 ]

  Energy converged.

  @DF-RHF Final Energy:  -248.11631006664868

   => Energetics <=

    Nuclear Repulsion Energy =            197.7655910865046849
    One-Electron Energy =                -729.2486618459658985
    Two-Electron Energy =                 283.3667606928128748
    DFT Exchange-Correlation Energy =       0.0000000000000000
    Empirical Dispersion Energy =           0.0000000000000000
    PCM Polarization Energy =               0.0000000000000000
    EFP Energy =                            0.0000000000000000
    Total Energy =                       -248.1163100666483956

    Alert: EFP and PCM quantities not currently incorporated into SCF psivars.

Properties will be evaluated at   0.000000,   0.000000,   0.000000 Bohr
  ==> Properties <==


Properties computed using the SCF density matrix

  Nuclear Dipole Moment: (a.u.)
     X:     1.0761      Y:    -2.0956      Z:     0.4355

  Electronic Dipole Moment: (a.u.)
     X:    -0.5157      Y:     1.6977      Z:    -0.7595

  Dipole Moment: (a.u.)
     X:     0.5604      Y:    -0.3979      Z:    -0.3240     Total:     0.7598

  Dipole Moment: (Debye)
     X:     1.4244      Y:    -1.0114      Z:    -0.8235     Total:     1.9313


  Saving occupied orbitals to File 180.

*** tstop() called on cx1-3-6-4.cx1.hpc.ic.ac.uk at Tue Jul  5 16:41:39 2016
Module time:
	user time   =       5.33 seconds =       0.09 minutes
	system time =       0.05 seconds =       0.00 minutes
	total time  =          6 seconds =       0.10 minutes
Total time:
	user time   =       5.33 seconds =       0.09 minutes
	system time =       0.05 seconds =       0.00 minutes
	total time  =          6 seconds =       0.10 minutes


Properties will be evaluated at   0.000000,   0.000000,   0.000000 Bohr

Properties computed using the  density matrix

  Nuclear Dipole Moment: (a.u.)
     X:     1.0761      Y:    -2.0956      Z:     0.4355

  Electronic Dipole Moment: (a.u.)
     X:    -0.5157      Y:     1.6977      Z:    -0.7595

  Dipole Moment: (a.u.)
     X:     0.5604      Y:    -0.3979      Z:    -0.3240     Total:     0.7598

  Dipole Moment: (Debye)
     X:     1.4244      Y:    -1.0114      Z:    -0.8235     Total:     1.9313

  Quadrupole Moment: (Debye Ang)
    XX:   -31.4647     YY:   -28.6467     ZZ:   -37.5090
    XY:     2.0715     XZ:     3.3632     YZ:     0.5395

  Traceless Quadrupole Moment: (Debye Ang)
    XX:     1.0754     YY:     3.8935     ZZ:    -4.9688
    XY:     2.0715     XZ:     3.3632     YZ:     0.5395

  Mulliken Charges: (a.u.)
   Center  Symbol    Alpha    Beta     Spin     Total
       1     H     0.33630  0.33630  0.00000  0.32739
       2     N     3.92081  3.92081  0.00000 -0.84161
       3     C     3.07030  3.07030  0.00000 -0.14061
       4     H     0.32253  0.32253  0.00000  0.35494
       5     C     3.00691  3.00691  0.00000 -0.01381
       6     H     0.42118  0.42118  0.00000  0.15765
       7     H     0.41578  0.41578  0.00000  0.16845
       8     O     4.30742  4.30742  0.00000 -0.61483
       9     H     0.41856  0.41856  0.00000  0.16287
      10     H     0.43109  0.43109  0.00000  0.13782
      11     C     3.08140  3.08140  0.00000 -0.16280
      12     H     0.43026  0.43026  0.00000  0.13947
      13     H     0.41116  0.41116  0.00000  0.17767
      14     H     0.42630  0.42630  0.00000  0.14740

   Total alpha = 21.00000, Total beta = 21.00000, Total charge = -0.00000


*** PSI4 exiting successfully. Buy a developer a beer!
