    -----------------------------------------------------------------------
          Psi4: An Open-Source Ab Initio Electronic Structure Package
                              Psi4 (no tag) Driver

                          Git: Rev {detached?}  

    J. M. Turney, A. C. Simmonett, R. M. Parrish, E. G. Hohenstein,
    F. A. Evangelista, J. T. Fermann, B. J. Mintz, L. A. Burns, J. J. Wilke,
    M. L. Abrams, N. J. Russ, M. L. Leininger, C. L. Janssen, E. T. Seidl,
    W. D. Allen, H. F. Schaefer, R. A. King, E. F. Valeev, C. D. Sherrill,
    and T. D. Crawford, WIREs Comput. Mol. Sci. 2, 556-565 (2012)
    (doi: 10.1002/wcms.93)

                         Additional Contributions by
    A. E. DePrince, M. Saitow, U. Bozkaya, A. Yu. Sokolov
    -----------------------------------------------------------------------


    Psi4 started on: Tue Jul  5 17:12:42 2016

    Process ID:   7339
    PSI4DATADIR: /export131/home/mjharvey/miniconda3/share
    Memory level set to 256.000 MB

  ==> Input File <==

--------------------------------------------------------------------------
set {
	reference rhf
	basis 6-31G*
}


set_num_threads( 1 )
memory 2 gb

molecule MOL {
0 1

O	 -0.825912	 1.765020	 1.761609
C	 -0.833093	 0.610524	 1.479901
C	 -1.060321	 -0.513972	 2.453668
O	 -0.632575	 0.154573	 0.251549
H	 -0.201215	 -1.174938	 2.456807
H	 -1.220343	 -0.110617	 3.442371
H	 -1.921255	 -1.096198	 2.146160
C	 0.160891	 -1.019931	 0.106212
C	 1.589627	 -0.672828	 0.480843
H	 0.089836	 -1.367806	 -0.916050
H	 -0.238459	 -1.792301	 0.749618
C	 1.722001	 0.048570	 1.823400
H	 1.992087	 -0.045559	 -0.311932
H	 2.181606	 -1.584278	 0.489726
C	 0.938030	 -0.641001	 2.939143
H	 2.773202	 0.101679	 2.099546
H	 1.378146	 1.072119	 1.716299
H	 1.047027	 -0.110418	 3.879693
H	 1.283598	 -1.659565	 3.092076
H	 -0.121838	 -0.683666	 2.704755

	symmetry c1
}
set optking {
	frozen_dihedral = ("
		16 12 9 8,
		2 4 8 10,
		12 9 8 10
	")
}

ee = energy('scf')
oeprop('DIPOLE', 'QUADRUPOLE', 'MULLIKEN_CHARGES')
f=open( 'psi4out.xyz', 'w' )
f.write( "20  " )
f.write( str(ee) + "\n" )
f.write( MOL.save_string_xyz() )
f.close()
--------------------------------------------------------------------------

  Memory set to   2.000 GiB by Python script.

*** tstart() called on cx1-1-1-1.cx1.hpc.ic.ac.uk
*** at Tue Jul  5 17:12:43 2016


         ---------------------------------------------------------
                                   SCF
            by Justin Turney, Rob Parrish, and Andy Simmonett
                              RHF Reference
                        1 Threads,   2000 MiB Core
         ---------------------------------------------------------

  ==> Geometry <==

    Molecular point group: c1
    Full point group: C1

    Geometry (in Angstrom), charge = 0, multiplicity = 1:

       Center              X                  Y                   Z               Mass       
    ------------   -----------------  -----------------  -----------------  -----------------
           O         -0.946297035438     1.800146468697     0.337499126745    15.994914619560
           C         -0.953478035438     0.645650468697     0.055791126745    12.000000000000
           C         -1.180706035438    -0.478845531303     1.029558126745    12.000000000000
           O         -0.752960035438     0.189699468697    -1.172560873255    15.994914619560
           H         -0.321600035438    -1.139811531303     1.032697126745     1.007825032070
           H         -1.340728035438    -0.075490531303     2.018261126745     1.007825032070
           H         -2.041640035438    -1.061071531303     0.722050126745     1.007825032070
           C          0.040505964562    -0.984804531303    -1.317897873255    12.000000000000
           C          1.469241964562    -0.637701531303    -0.943266873255    12.000000000000
           H         -0.030549035438    -1.332679531303    -2.340159873255     1.007825032070
           H         -0.358844035438    -1.757174531303    -0.674491873255     1.007825032070
           C          1.601615964562     0.083696468697     0.399290126745    12.000000000000
           H          1.871701964562    -0.010432531303    -1.736041873255     1.007825032070
           H          2.061220964562    -1.549151531303    -0.934383873255     1.007825032070
           C          0.817644964562    -0.605874531303     1.515033126745    12.000000000000
           H          2.652816964562     0.136805468697     0.675436126745     1.007825032070
           H          1.257760964562     1.107245468697     0.292189126745     1.007825032070
           H          0.926641964562    -0.075291531303     2.455583126745     1.007825032070
           H          1.163212964562    -1.624438531303     1.667966126745     1.007825032070
           H         -0.242223035438    -0.648539531303     1.280645126745     1.007825032070

  Running in c1 symmetry.

  Rotational constants: A =      0.08947  B =      0.07110  C =      0.05712 [cm^-1]
  Rotational constants: A =   2682.33573  B =   2131.58739  C =   1712.54262 [MHz]
  Nuclear repulsion =  437.220624334495994

  Charge       = 0
  Multiplicity = 1
  Electrons    = 64
  Nalpha       = 32
  Nbeta        = 32

  ==> Algorithm <==

  SCF Algorithm Type is DF.
  DIIS enabled.
  MOM disabled.
  Fractional occupation disabled.
  Guess Type is CORE.
  Energy threshold   = 1.00e-06
  Density threshold  = 1.00e-06
  Integral threshold = 0.00e+00

  ==> Primary Basis <==

  Basis Set: 6-31G*
    Number of shells: 72
    Number of basis function: 144
    Number of Cartesian functions: 144
    Spherical Harmonics?: false
    Max angular momentum: 2

  ==> Pre-Iterations <==

   -------------------------------------------------------
    Irrep   Nso     Nmo     Nalpha   Nbeta   Ndocc  Nsocc
   -------------------------------------------------------
     A        144     144       0       0       0       0
   -------------------------------------------------------
    Total     144     144      32      32      32       0
   -------------------------------------------------------

 OEINTS: Overlap, kinetic, potential, dipole, and quadrupole integrals
         stored in file 35.

  ==> Integral Setup <==

  ==> DFJK: Density-Fitted J/K Matrices <==

    J tasked:                  Yes
    K tasked:                  Yes
    wK tasked:                  No
    OpenMP threads:              1
    Integrals threads:           1
    Memory (MB):              1430
    Algorithm:                Core
    Integral Cache:           NONE
    Schwarz Cutoff:          1E-12
    Fitting Condition:       1E-12

   => Auxiliary Basis Set <=

  Basis Set: 
    Number of shells: 300
    Number of basis function: 948
    Number of Cartesian functions: 948
    Spherical Harmonics?: false
    Max angular momentum: 3

  Minimum eigenvalue in the overlap matrix is 7.0482240599E-04.
  Using Symmetric Orthogonalization.
  SCF Guess: Core (One-Electron) Hamiltonian.

  ==> Iterations <==

                           Total Energy        Delta E     RMS |[F,P]|

   @DF-RHF iter   1:  -303.78496676214519   -3.03785e+02   6.70716e-02 
   @DF-RHF iter   2:  -265.85258560081303    3.79324e+01   6.03124e-02 DIIS
   @DF-RHF iter   3:  -324.85082334804162   -5.89982e+01   5.14858e-02 DIIS
   @DF-RHF iter   4:  -377.43525196914658   -5.25844e+01   2.24283e-02 DIIS
   @DF-RHF iter   5:  -381.54099216028277   -4.10574e+00   1.16018e-02 DIIS
   @DF-RHF iter   6:  -383.30623051515494   -1.76524e+00   2.09492e-03 DIIS
   @DF-RHF iter   7:  -383.36325091704424   -5.70204e-02   8.77936e-04 DIIS
   @DF-RHF iter   8:  -383.37245501672436   -9.20410e-03   3.70531e-04 DIIS
   @DF-RHF iter   9:  -383.37471586106545   -2.26084e-03   1.41204e-04 DIIS
   @DF-RHF iter  10:  -383.37497379781342   -2.57937e-04   4.20714e-05 DIIS
   @DF-RHF iter  11:  -383.37500318729968   -2.93895e-05   1.09461e-05 DIIS
   @DF-RHF iter  12:  -383.37500584884782   -2.66155e-06   5.48031e-06 DIIS
   @DF-RHF iter  13:  -383.37500644893572   -6.00088e-07   1.82173e-06 DIIS
   @DF-RHF iter  14:  -383.37500656586457   -1.16929e-07   7.52160e-07 DIIS

  ==> Post-Iterations <==

    Orbital Energies (a.u.)
    -----------------------

    Doubly Occupied:                                                      

       1A    -20.606542     2A    -20.556445     3A    -11.392007  
       4A    -11.306220     5A    -11.231062     6A    -11.229864  
       7A    -11.216098     8A    -11.136838     9A     -1.478695  
      10A     -1.379800    11A     -1.284414    12A     -1.082306  
      13A     -0.982607    14A     -0.931183    15A     -0.839328  
      16A     -0.792715    17A     -0.751135    18A     -0.719431  
      19A     -0.691506    20A     -0.666779    21A     -0.637778  
      22A     -0.613906    23A     -0.583327    24A     -0.571528  
      25A     -0.552519    26A     -0.530063    27A     -0.512487  
      28A     -0.476233    29A     -0.467334    30A     -0.449353  
      31A     -0.446221    32A     -0.275016  

    Virtual:                                                              

      33A      0.164498    34A      0.202743    35A      0.249298  
      36A      0.253118    37A      0.274022    38A      0.287131  
      39A      0.297160    40A      0.311579    41A      0.322690  
      42A      0.327222    43A      0.347194    44A      0.364842  
      45A      0.366366    46A      0.377761    47A      0.410355  
      48A      0.436365    49A      0.473120    50A      0.496512  
      51A      0.539590    52A      0.583535    53A      0.700528  
      54A      0.729326    55A      0.735669    56A      0.740771  
      57A      0.775737    58A      0.796874    59A      0.816596  
      60A      0.830530    61A      0.863492    62A      0.887259  
      63A      0.943344    64A      0.952572    65A      0.966990  
      66A      0.984880    67A      1.028792    68A      1.046881  
      69A      1.074226    70A      1.088431    71A      1.110940  
      72A      1.139255    73A      1.141107    74A      1.155683  
      75A      1.176459    76A      1.183840    77A      1.192652  
      78A      1.206368    79A      1.216680    80A      1.241024  
      81A      1.246452    82A      1.257968    83A      1.298713  
      84A      1.347395    85A      1.387570    86A      1.431856  
      87A      1.465064    88A      1.515835    89A      1.548734  
      90A      1.560406    91A      1.620811    92A      1.669867  
      93A      1.735953    94A      1.793188    95A      1.817332  
      96A      1.848641    97A      1.897960    98A      1.934336  
      99A      1.971095   100A      2.001235   101A      2.025539  
     102A      2.086600   103A      2.119156   104A      2.131426  
     105A      2.175464   106A      2.195481   107A      2.217515  
     108A      2.264953   109A      2.295680   110A      2.306988  
     111A      2.339615   112A      2.348828   113A      2.380229  
     114A      2.446279   115A      2.464634   116A      2.495251  
     117A      2.506321   118A      2.625167   119A      2.639468  
     120A      2.656256   121A      2.702514   122A      2.712689  
     123A      2.735267   124A      2.789677   125A      2.792851  
     126A      2.836587   127A      2.914475   128A      3.036739  
     129A      3.052330   130A      3.082741   131A      3.119877  
     132A      3.189648   133A      3.266832   134A      3.309372  
     135A      3.396162   136A      3.538525   137A      4.511534  
     138A      4.589902   139A      4.636217   140A      4.822232  
     141A      4.879595   142A      4.907141   143A      4.997294  
     144A      5.067561  

    Final Occupation by Irrep:
              A 
    DOCC [    32 ]

  Energy converged.

  @DF-RHF Final Energy:  -383.37500656586457

   => Energetics <=

    Nuclear Repulsion Energy =            437.2206243344959944
    One-Electron Energy =               -1388.4097638647217536
    Two-Electron Energy =                 567.8141329643607378
    DFT Exchange-Correlation Energy =       0.0000000000000000
    Empirical Dispersion Energy =           0.0000000000000000
    PCM Polarization Energy =               0.0000000000000000
    EFP Energy =                            0.0000000000000000
    Total Energy =                       -383.3750065658649646

    Alert: EFP and PCM quantities not currently incorporated into SCF psivars.

Properties will be evaluated at   0.000000,   0.000000,   0.000000 Bohr
  ==> Properties <==


Properties computed using the SCF density matrix

  Nuclear Dipole Moment: (a.u.)
     X:     5.2396      Y:    -7.5183      Z:     4.1769

  Electronic Dipole Moment: (a.u.)
     X:    -5.1171      Y:     5.8298      Z:    -4.2178

  Dipole Moment: (a.u.)
     X:     0.1224      Y:    -1.6886      Z:    -0.0410     Total:     1.6935

  Dipole Moment: (Debye)
     X:     0.3112      Y:    -4.2919      Z:    -0.1041     Total:     4.3045


  Saving occupied orbitals to File 180.

*** tstop() called on cx1-1-1-1.cx1.hpc.ic.ac.uk at Tue Jul  5 17:13:00 2016
Module time:
	user time   =      16.46 seconds =       0.27 minutes
	system time =       0.16 seconds =       0.00 minutes
	total time  =         17 seconds =       0.28 minutes
Total time:
	user time   =      16.46 seconds =       0.27 minutes
	system time =       0.16 seconds =       0.00 minutes
	total time  =         17 seconds =       0.28 minutes


Properties will be evaluated at   0.000000,   0.000000,   0.000000 Bohr

Properties computed using the  density matrix

  Nuclear Dipole Moment: (a.u.)
     X:     5.2396      Y:    -7.5183      Z:     4.1769

  Electronic Dipole Moment: (a.u.)
     X:    -5.1171      Y:     5.8298      Z:    -4.2178

  Dipole Moment: (a.u.)
     X:     0.1224      Y:    -1.6886      Z:    -0.0410     Total:     1.6935

  Dipole Moment: (Debye)
     X:     0.3112      Y:    -4.2919      Z:    -0.1041     Total:     4.3045

  Quadrupole Moment: (Debye Ang)
    XX:   -52.0239     YY:   -54.5907     ZZ:   -49.9377
    XY:     3.6288     XZ:    -3.5098     YZ:     1.1596

  Traceless Quadrupole Moment: (Debye Ang)
    XX:     0.1602     YY:    -2.4066     ZZ:     2.2464
    XY:     3.6288     XZ:    -3.5098     YZ:     1.1596

  Mulliken Charges: (a.u.)
   Center  Symbol    Alpha    Beta     Spin     Total
       1     O     4.26463  4.26463  0.00000 -0.52926
       2     C     2.61902  2.61902  0.00000  0.76197
       3     C     3.39274  3.39274  0.00000 -0.78548
       4     O     4.29866  4.29866  0.00000 -0.59733
       5     H     0.33860  0.33860  0.00000  0.32280
       6     H     0.36695  0.36695  0.00000  0.26610
       7     H     0.39581  0.39581  0.00000  0.20839
       8     C     3.04103  3.04103  0.00000 -0.08206
       9     C     3.15541  3.15541  0.00000 -0.31082
      10     H     0.39369  0.39369  0.00000  0.21262
      11     H     0.41498  0.41498  0.00000  0.17003
      12     C     3.17999  3.17999  0.00000 -0.35998
      13     H     0.40716  0.40716  0.00000  0.18568
      14     H     0.41821  0.41821  0.00000  0.16358
      15     C     3.40612  3.40612  0.00000 -0.81223
      16     H     0.40871  0.40871  0.00000  0.18259
      17     H     0.39162  0.39162  0.00000  0.21677
      18     H     0.40799  0.40799  0.00000  0.18401
      19     H     0.42853  0.42853  0.00000  0.14294
      20     H     0.27016  0.27016  0.00000  0.45969

   Total alpha = 32.00000, Total beta = 32.00000, Total charge = -0.00000


*** PSI4 exiting successfully. Buy a developer a beer!
