    -----------------------------------------------------------------------
          Psi4: An Open-Source Ab Initio Electronic Structure Package
                              Psi4 (no tag) Driver

                          Git: Rev {detached?}  

    J. M. Turney, A. C. Simmonett, R. M. Parrish, E. G. Hohenstein,
    F. A. Evangelista, J. T. Fermann, B. J. Mintz, L. A. Burns, J. J. Wilke,
    M. L. Abrams, N. J. Russ, M. L. Leininger, C. L. Janssen, E. T. Seidl,
    W. D. Allen, H. F. Schaefer, R. A. King, E. F. Valeev, C. D. Sherrill,
    and T. D. Crawford, WIREs Comput. Mol. Sci. 2, 556-565 (2012)
    (doi: 10.1002/wcms.93)

                         Additional Contributions by
    A. E. DePrince, M. Saitow, U. Bozkaya, A. Yu. Sokolov
    -----------------------------------------------------------------------


    Psi4 started on: Tue Jul  5 16:34:09 2016

    Process ID:  21480
    PSI4DATADIR: /export131/home/mjharvey/miniconda3/share
    Memory level set to 256.000 MB

  ==> Input File <==

--------------------------------------------------------------------------
set {
	reference rhf
	basis 6-31G*
}


set_num_threads( 1 )
memory 2 gb

molecule MOL {
0 1

O	 1.066834	 -2.032293	 1.712165
C	 0.275803	 -1.645901	 0.914452
C	 -1.147444	 -2.120194	 0.804999
O	 0.550821	 -0.724572	 0.000672
H	 -1.823175	 -1.281819	 0.928282
H	 -1.339790	 -2.865528	 1.562212
H	 -1.318951	 -2.538157	 -0.180127
C	 0.956294	 0.547489	 0.473676
H	 1.319300	 1.157289	 -0.341018
H	 1.747748	 0.359940	 1.182319
H	 0.132513	 1.052877	 0.956699

	symmetry c1
}
set optking {
	frozen_dihedral = ("
		2 4 8 9
	")
}

ee = energy('scf')
oeprop('DIPOLE', 'QUADRUPOLE', 'MULLIKEN_CHARGES')
f=open( 'psi4out.xyz', 'w' )
f.write( "11  " )
f.write( str(ee) + "\n" )
f.write( MOL.save_string_xyz() )
f.close()
--------------------------------------------------------------------------

  Memory set to   2.000 GiB by Python script.

*** tstart() called on cx1-1-4-3.cx1.hpc.ic.ac.uk
*** at Tue Jul  5 16:34:10 2016


         ---------------------------------------------------------
                                   SCF
            by Justin Turney, Rob Parrish, and Andy Simmonett
                              RHF Reference
                        1 Threads,   2000 MiB Core
         ---------------------------------------------------------

  ==> Geometry <==

    Molecular point group: c1
    Full point group: C1

    Geometry (in Angstrom), charge = 0, multiplicity = 1:

       Center              X                  Y                   Z               Mass       
    ------------   -----------------  -----------------  -----------------  -----------------
           O          0.721090974217    -0.859001913044     0.930732837229    15.994914619560
           C         -0.069940025783    -0.472609913044     0.133019837229    12.000000000000
           C         -1.493187025783    -0.946902913044     0.023566837229    12.000000000000
           O          0.205077974217     0.448719086956    -0.780760162771    15.994914619560
           H         -2.168918025783    -0.108527913044     0.146849837229     1.007825032070
           H         -1.685533025783    -1.692236913044     0.780779837229     1.007825032070
           H         -1.664694025783    -1.364865913044    -0.961559162771     1.007825032070
           C          0.610550974217     1.720780086956    -0.307756162771    12.000000000000
           H          0.973556974217     2.330580086956    -1.122450162771     1.007825032070
           H          1.402004974217     1.533231086956     0.400886837229     1.007825032070
           H         -0.213230025783     2.226168086956     0.175266837229     1.007825032070

  Running in c1 symmetry.

  Rotational constants: A =      0.30062  B =      0.14506  C =      0.10930 [cm^-1]
  Rotational constants: A =   9012.30817  B =   4348.86103  C =   3276.81278 [MHz]
  Nuclear repulsion =  183.172354418054965

  Charge       = 0
  Multiplicity = 1
  Electrons    = 40
  Nalpha       = 20
  Nbeta        = 20

  ==> Algorithm <==

  SCF Algorithm Type is DF.
  DIIS enabled.
  MOM disabled.
  Fractional occupation disabled.
  Guess Type is CORE.
  Energy threshold   = 1.00e-06
  Density threshold  = 1.00e-06
  Integral threshold = 0.00e+00

  ==> Primary Basis <==

  Basis Set: 6-31G*
    Number of shells: 42
    Number of basis function: 87
    Number of Cartesian functions: 87
    Spherical Harmonics?: false
    Max angular momentum: 2

  ==> Pre-Iterations <==

   -------------------------------------------------------
    Irrep   Nso     Nmo     Nalpha   Nbeta   Ndocc  Nsocc
   -------------------------------------------------------
     A         87      87       0       0       0       0
   -------------------------------------------------------
    Total      87      87      20      20      20       0
   -------------------------------------------------------

 OEINTS: Overlap, kinetic, potential, dipole, and quadrupole integrals
         stored in file 35.

  ==> Integral Setup <==

  ==> DFJK: Density-Fitted J/K Matrices <==

    J tasked:                  Yes
    K tasked:                  Yes
    wK tasked:                  No
    OpenMP threads:              1
    Integrals threads:           1
    Memory (MB):              1430
    Algorithm:                Core
    Integral Cache:           NONE
    Schwarz Cutoff:          1E-12
    Fitting Condition:       1E-12

   => Auxiliary Basis Set <=

  Basis Set: 
    Number of shells: 174
    Number of basis function: 555
    Number of Cartesian functions: 555
    Spherical Harmonics?: false
    Max angular momentum: 3

  Minimum eigenvalue in the overlap matrix is 3.9541996816E-03.
  Using Symmetric Orthogonalization.
  SCF Guess: Core (One-Electron) Hamiltonian.

  ==> Iterations <==

                           Total Energy        Delta E     RMS |[F,P]|

   @DF-RHF iter   1:  -212.32763013864542   -2.12328e+02   8.77801e-02 
   @DF-RHF iter   2:  -208.49401805866091    3.83361e+00   6.22508e-02 DIIS
   @DF-RHF iter   3:  -238.27452224792432   -2.97805e+01   6.92064e-02 DIIS
   @DF-RHF iter   4:  -256.00297977806275   -1.77285e+01   4.20439e-02 DIIS
   @DF-RHF iter   5:  -263.19096939091980   -7.18799e+00   2.66077e-02 DIIS
   @DF-RHF iter   6:  -266.32762546329968   -3.13666e+00   9.95630e-03 DIIS
   @DF-RHF iter   7:  -266.76886736794251   -4.41242e-01   3.13788e-03 DIIS
   @DF-RHF iter   8:  -266.80857244527215   -3.97051e-02   1.57587e-03 DIIS
   @DF-RHF iter   9:  -266.81791925879003   -9.34681e-03   5.49389e-04 DIIS
   @DF-RHF iter  10:  -266.81933039440986   -1.41114e-03   1.72253e-04 DIIS
   @DF-RHF iter  11:  -266.81952136746088   -1.90973e-04   6.35916e-05 DIIS
   @DF-RHF iter  12:  -266.81954738301897   -2.60156e-05   1.82973e-05 DIIS
   @DF-RHF iter  13:  -266.81955064841003   -3.26539e-06   7.51413e-06 DIIS
   @DF-RHF iter  14:  -266.81955117212146   -5.23711e-07   2.06141e-06 DIIS
   @DF-RHF iter  15:  -266.81955122242749   -5.03060e-08   5.00267e-07 DIIS

  ==> Post-Iterations <==

    Orbital Energies (a.u.)
    -----------------------

    Doubly Occupied:                                                      

       1A    -20.591289     2A    -20.553587     3A    -11.378225  
       4A    -11.290579     5A    -11.235145     6A     -1.467331  
       7A     -1.366805     8A     -1.031339     9A     -0.960646  
      10A     -0.779056    11A     -0.696531    12A     -0.682885  
      13A     -0.674626    14A     -0.606738    15A     -0.592889  
      16A     -0.571786    17A     -0.536612    18A     -0.499729  
      19A     -0.456510    20A     -0.441481  

    Virtual:                                                              

      21A      0.178723    22A      0.232265    23A      0.270890  
      24A      0.303699    25A      0.305974    26A      0.317377  
      27A      0.331113    28A      0.348338    29A      0.405400  
      30A      0.507615    31A      0.555758    32A      0.708909  
      33A      0.739661    34A      0.764464    35A      0.772850  
      36A      0.804697    37A      0.817245    38A      0.842460  
      39A      0.952227    40A      0.971442    41A      1.022223  
      42A      1.086495    43A      1.099692    44A      1.134732  
      45A      1.144060    46A      1.176984    47A      1.209643  
      48A      1.221295    49A      1.243765    50A      1.283169  
      51A      1.355951    52A      1.369768    53A      1.379912  
      54A      1.463340    55A      1.585648    56A      1.664059  
      57A      1.693907    58A      1.807480    59A      1.869947  
      60A      1.936645    61A      2.030850    62A      2.069456  
      63A      2.112008    64A      2.139444    65A      2.172668  
      66A      2.284321    67A      2.333350    68A      2.385785  
      69A      2.420600    70A      2.476098    71A      2.529509  
      72A      2.559591    73A      2.620405    74A      2.666729  
      75A      2.772217    76A      2.866405    77A      2.899931  
      78A      3.157868    79A      3.173552    80A      3.324343  
      81A      3.365758    82A      3.499209    83A      4.366769  
      84A      4.526702    85A      4.600994    86A      4.699258  
      87A      4.870720  

    Final Occupation by Irrep:
              A 
    DOCC [    20 ]

  Energy converged.

  @DF-RHF Final Energy:  -266.81955122242749

   => Energetics <=

    Nuclear Repulsion Energy =            183.1723544180549652
    One-Electron Energy =                -727.1562019360793556
    Two-Electron Energy =                 277.1642962955970688
    DFT Exchange-Correlation Energy =       0.0000000000000000
    Empirical Dispersion Energy =           0.0000000000000000
    PCM Polarization Energy =               0.0000000000000000
    EFP Energy =                            0.0000000000000000
    Total Energy =                       -266.8195512224273216

    Alert: EFP and PCM quantities not currently incorporated into SCF psivars.

Properties will be evaluated at   0.000000,   0.000000,   0.000000 Bohr
  ==> Properties <==


Properties computed using the SCF density matrix

  Nuclear Dipole Moment: (a.u.)
     X:    -3.1425      Y:     2.7395      Z:    -0.5432

  Electronic Dipole Moment: (a.u.)
     X:     2.3914      Y:    -1.9624      Z:     0.2350

  Dipole Moment: (a.u.)
     X:    -0.7510      Y:     0.7771      Z:    -0.3082     Total:     1.1238

  Dipole Moment: (Debye)
     X:    -1.9089      Y:     1.9751      Z:    -0.7833     Total:     2.8563


  Saving occupied orbitals to File 180.

*** tstop() called on cx1-1-4-3.cx1.hpc.ic.ac.uk at Tue Jul  5 16:34:13 2016
Module time:
	user time   =       3.47 seconds =       0.06 minutes
	system time =       0.04 seconds =       0.00 minutes
	total time  =          3 seconds =       0.05 minutes
Total time:
	user time   =       3.47 seconds =       0.06 minutes
	system time =       0.04 seconds =       0.00 minutes
	total time  =          3 seconds =       0.05 minutes


Properties will be evaluated at   0.000000,   0.000000,   0.000000 Bohr

Properties computed using the  density matrix

  Nuclear Dipole Moment: (a.u.)
     X:    -3.1425      Y:     2.7395      Z:    -0.5432

  Electronic Dipole Moment: (a.u.)
     X:     2.3914      Y:    -1.9624      Z:     0.2350

  Dipole Moment: (a.u.)
     X:    -0.7510      Y:     0.7771      Z:    -0.3082     Total:     1.1238

  Dipole Moment: (Debye)
     X:    -1.9089      Y:     1.9751      Z:    -0.7833     Total:     2.8563

  Quadrupole Moment: (Debye Ang)
    XX:   -29.4711     YY:   -26.5210     ZZ:   -32.9252
    XY:     3.4879     XZ:    -1.8068     YZ:     1.8749

  Traceless Quadrupole Moment: (Debye Ang)
    XX:     0.1680     YY:     3.1181     ZZ:    -3.2861
    XY:     3.4879     XZ:    -1.8068     YZ:     1.8749

  Mulliken Charges: (a.u.)
   Center  Symbol    Alpha    Beta     Spin     Total
       1     O     4.26440  4.26440  0.00000 -0.52881
       2     C     2.62672  2.62672  0.00000  0.74657
       3     C     3.28283  3.28283  0.00000 -0.56567
       4     O     4.30398  4.30398  0.00000 -0.60795
       5     H     0.40514  0.40514  0.00000  0.18972
       6     H     0.39857  0.39857  0.00000  0.20286
       7     H     0.39830  0.39830  0.00000  0.20340
       8     C     3.09633  3.09633  0.00000 -0.19265
       9     H     0.40347  0.40347  0.00000  0.19306
      10     H     0.40130  0.40130  0.00000  0.19740
      11     H     0.41896  0.41896  0.00000  0.16208

   Total alpha = 20.00000, Total beta = 20.00000, Total charge =  0.00000


*** PSI4 exiting successfully. Buy a developer a beer!
