    -----------------------------------------------------------------------
          Psi4: An Open-Source Ab Initio Electronic Structure Package
                              Psi4 (no tag) Driver

                          Git: Rev {detached?}  

    J. M. Turney, A. C. Simmonett, R. M. Parrish, E. G. Hohenstein,
    F. A. Evangelista, J. T. Fermann, B. J. Mintz, L. A. Burns, J. J. Wilke,
    M. L. Abrams, N. J. Russ, M. L. Leininger, C. L. Janssen, E. T. Seidl,
    W. D. Allen, H. F. Schaefer, R. A. King, E. F. Valeev, C. D. Sherrill,
    and T. D. Crawford, WIREs Comput. Mol. Sci. 2, 556-565 (2012)
    (doi: 10.1002/wcms.93)

                         Additional Contributions by
    A. E. DePrince, M. Saitow, U. Bozkaya, A. Yu. Sokolov
    -----------------------------------------------------------------------


    Psi4 started on: Tue Jul  5 16:46:52 2016

    Process ID:  18905
    PSI4DATADIR: /export131/home/mjharvey/miniconda3/share
    Memory level set to 256.000 MB

  ==> Input File <==

--------------------------------------------------------------------------
set {
	reference rhf
	basis 6-31G*
}


set_num_threads( 1 )
memory 2 gb

molecule MOL {
0 1

O	 -1.329485	 1.062595	 -0.599987
C	 -1.083277	 0.139568	 0.115197
C	 0.323299	 -0.082943	 0.642902
C	 -2.143673	 -0.863929	 0.510649
C	 1.355627	 -0.005344	 -0.493127
H	 0.396251	 -1.044647	 1.143147
H	 0.528637	 0.693580	 1.371677
C	 1.155333	 1.223865	 -1.377534
H	 2.360126	 0.010252	 -0.075980
H	 1.280057	 -0.907677	 -1.090809
H	 1.891536	 1.252673	 -2.174319
H	 1.250670	 2.141594	 -0.804378
H	 0.170717	 1.219102	 -1.835306
H	 -1.805773	 -1.877875	 0.317243
H	 -3.057209	 -0.670842	 -0.034240
H	 -2.337347	 -0.788827	 1.577446

	symmetry c1
}
set optking {
	frozen_dihedral = ("
		9 5 3 2
	")
}

ee = energy('scf')
oeprop('DIPOLE', 'QUADRUPOLE', 'MULLIKEN_CHARGES')
f=open( 'psi4out.xyz', 'w' )
f.write( "16  " )
f.write( str(ee) + "\n" )
f.write( MOL.save_string_xyz() )
f.close()
--------------------------------------------------------------------------

  Memory set to   2.000 GiB by Python script.

*** tstart() called on cx1-3-15-3.cx1.hpc.ic.ac.uk
*** at Tue Jul  5 16:46:52 2016


         ---------------------------------------------------------
                                   SCF
            by Justin Turney, Rob Parrish, and Andy Simmonett
                              RHF Reference
                        1 Threads,   2000 MiB Core
         ---------------------------------------------------------

  ==> Geometry <==

    Molecular point group: c1
    Full point group: C1

    Geometry (in Angstrom), charge = 0, multiplicity = 1:

       Center              X                  Y                   Z               Mass       
    ------------   -----------------  -----------------  -----------------  -----------------
           O         -1.035614972911     0.807483349383    -0.385776460765    15.994914619560
           C         -0.789406972911    -0.115543650617     0.329407539235    12.000000000000
           C          0.617169027089    -0.338054650617     0.857112539235    12.000000000000
           C         -1.849802972911    -1.119040650617     0.724859539235    12.000000000000
           C          1.649497027089    -0.260455650617    -0.278916460765    12.000000000000
           H          0.690121027089    -1.299758650617     1.357357539235     1.007825032070
           H          0.822507027089     0.438468349383     1.585887539235     1.007825032070
           C          1.449203027089     0.968753349383    -1.163323460765    12.000000000000
           H          2.653996027089    -0.244859650617     0.138230539235     1.007825032070
           H          1.573927027089    -1.162788650617    -0.876598460765     1.007825032070
           H          2.185406027089     0.997561349383    -1.960108460765     1.007825032070
           H          1.544540027089     1.886482349383    -0.590167460765     1.007825032070
           H          0.464587027089     0.963990349383    -1.621095460765     1.007825032070
           H         -1.511902972911    -2.132986650617     0.531453539235     1.007825032070
           H         -2.763338972911    -0.925953650617     0.179970539235     1.007825032070
           H         -2.043476972911    -1.043938650617     1.791656539235     1.007825032070

  Running in c1 symmetry.

  Rotational constants: A =      0.21784  B =      0.08330  C =      0.06654 [cm^-1]
  Rotational constants: A =   6530.80990  B =   2497.19433  C =   1994.72528 [MHz]
  Nuclear repulsion =  245.606009420850228

  Charge       = 0
  Multiplicity = 1
  Electrons    = 48
  Nalpha       = 24
  Nbeta        = 24

  ==> Algorithm <==

  SCF Algorithm Type is DF.
  DIIS enabled.
  MOM disabled.
  Fractional occupation disabled.
  Guess Type is CORE.
  Energy threshold   = 1.00e-06
  Density threshold  = 1.00e-06
  Integral threshold = 0.00e+00

  ==> Primary Basis <==

  Basis Set: 6-31G*
    Number of shells: 56
    Number of basis function: 110
    Number of Cartesian functions: 110
    Spherical Harmonics?: false
    Max angular momentum: 2

  ==> Pre-Iterations <==

   -------------------------------------------------------
    Irrep   Nso     Nmo     Nalpha   Nbeta   Ndocc  Nsocc
   -------------------------------------------------------
     A        110     110       0       0       0       0
   -------------------------------------------------------
    Total     110     110      24      24      24       0
   -------------------------------------------------------

 OEINTS: Overlap, kinetic, potential, dipole, and quadrupole integrals
         stored in file 35.

  ==> Integral Setup <==

  ==> DFJK: Density-Fitted J/K Matrices <==

    J tasked:                  Yes
    K tasked:                  Yes
    wK tasked:                  No
    OpenMP threads:              1
    Integrals threads:           1
    Memory (MB):              1430
    Algorithm:                Core
    Integral Cache:           NONE
    Schwarz Cutoff:          1E-12
    Fitting Condition:       1E-12

   => Auxiliary Basis Set <=

  Basis Set: 
    Number of shells: 234
    Number of basis function: 736
    Number of Cartesian functions: 736
    Spherical Harmonics?: false
    Max angular momentum: 3

  Minimum eigenvalue in the overlap matrix is 3.7477046559E-03.
  Using Symmetric Orthogonalization.
  SCF Guess: Core (One-Electron) Hamiltonian.

  ==> Iterations <==

                           Total Energy        Delta E     RMS |[F,P]|

   @DF-RHF iter   1:  -208.15467494836469   -2.08155e+02   7.81267e-02 
   @DF-RHF iter   2:  -201.13211409425355    7.02256e+00   5.99626e-02 DIIS
   @DF-RHF iter   3:  -243.82115465770363   -4.26890e+01   4.58554e-02 DIIS
   @DF-RHF iter   4:  -267.68246251378696   -2.38613e+01   1.64186e-02 DIIS
   @DF-RHF iter   5:  -266.49561811248589    1.18684e+00   2.00875e-02 DIIS
   @DF-RHF iter   6:  -269.86692682497983   -3.37131e+00   5.09918e-03 DIIS
   @DF-RHF iter   7:  -270.00235035107232   -1.35424e-01   1.19833e-03 DIIS
   @DF-RHF iter   8:  -270.01442962652936   -1.20793e-02   4.25768e-04 DIIS
   @DF-RHF iter   9:  -270.01624567027386   -1.81604e-03   1.28700e-04 DIIS
   @DF-RHF iter  10:  -270.01640557725466   -1.59907e-04   3.77759e-05 DIIS
   @DF-RHF iter  11:  -270.01642540475711   -1.98275e-05   1.41239e-05 DIIS
   @DF-RHF iter  12:  -270.01642853886653   -3.13411e-06   6.08254e-06 DIIS
   @DF-RHF iter  13:  -270.01642896521219   -4.26346e-07   1.90687e-06 DIIS
   @DF-RHF iter  14:  -270.01642903065385   -6.54417e-08   5.98043e-07 DIIS

  ==> Post-Iterations <==

    Orbital Energies (a.u.)
    -----------------------

    Doubly Occupied:                                                      

       1A    -20.549255     2A    -11.328574     3A    -11.231179  
       4A    -11.230150     5A    -11.224617     6A    -11.190335  
       7A     -1.400515     8A     -1.074571     9A     -1.014988  
      10A     -0.938599    11A     -0.821483    12A     -0.734244  
      13A     -0.664682    14A     -0.649756    15A     -0.613745  
      16A     -0.589405    17A     -0.582940    18A     -0.553903  
      19A     -0.531301    20A     -0.505366    21A     -0.495436  
      22A     -0.476846    23A     -0.462920    24A     -0.390250  

    Virtual:                                                              

      25A      0.161229    26A      0.225853    27A      0.266293  
      28A      0.288946    29A      0.304891    30A      0.307024  
      31A      0.315726    32A      0.324869    33A      0.331389  
      34A      0.349471    35A      0.373465    36A      0.391586  
      37A      0.405034    38A      0.453734    39A      0.485470  
      40A      0.521592    41A      0.710996    42A      0.731471  
      43A      0.746179    44A      0.759276    45A      0.805560  
      46A      0.817704    47A      0.843735    48A      0.874089  
      49A      0.884218    50A      0.914848    51A      0.958100  
      52A      0.985307    53A      1.015635    54A      1.037310  
      55A      1.095679    56A      1.118282    57A      1.127038  
      58A      1.146276    59A      1.171329    60A      1.183562  
      61A      1.197066    62A      1.198782    63A      1.222196  
      64A      1.226781    65A      1.243192    66A      1.284761  
      67A      1.335830    68A      1.378394    69A      1.406587  
      70A      1.484883    71A      1.541277    72A      1.641610  
      73A      1.724981    74A      1.765617    75A      1.780643  
      76A      1.856073    77A      1.926351    78A      2.020603  
      79A      2.049526    80A      2.101218    81A      2.115230  
      82A      2.160989    83A      2.202310    84A      2.249508  
      85A      2.254985    86A      2.312169    87A      2.331950  
      88A      2.378660    89A      2.433907    90A      2.513118  
      91A      2.516250    92A      2.634482    93A      2.666141  
      94A      2.676212    95A      2.700547    96A      2.738883  
      97A      2.785884    98A      2.851678    99A      2.893399  
     100A      3.002250   101A      3.034478   102A      3.146934  
     103A      3.379099   104A      3.409000   105A      4.468301  
     106A      4.545311   107A      4.647590   108A      4.760346  
     109A      4.866946   110A      4.988135  

    Final Occupation by Irrep:
              A 
    DOCC [    24 ]

  Energy converged.

  @DF-RHF Final Energy:  -270.01642903065385

   => Energetics <=

    Nuclear Repulsion Energy =            245.6060094208502278
    One-Electron Energy =                -852.7347906702111686
    Two-Electron Energy =                 337.1123522187073718
    DFT Exchange-Correlation Energy =       0.0000000000000000
    Empirical Dispersion Energy =           0.0000000000000000
    PCM Polarization Energy =               0.0000000000000000
    EFP Energy =                            0.0000000000000000
    Total Energy =                       -270.0164290306535690

    Alert: EFP and PCM quantities not currently incorporated into SCF psivars.

Properties will be evaluated at   0.000000,   0.000000,   0.000000 Bohr
  ==> Properties <==


Properties computed using the SCF density matrix

  Nuclear Dipole Moment: (a.u.)
     X:     3.3853      Y:    -2.3621      Z:     0.5012

  Electronic Dipole Moment: (a.u.)
     X:    -3.2092      Y:     1.4799      Z:     0.1953

  Dipole Moment: (a.u.)
     X:     0.1761      Y:    -0.8822      Z:     0.6965     Total:     1.1377

  Dipole Moment: (Debye)
     X:     0.4475      Y:    -2.2422      Z:     1.7704     Total:     2.8917


  Saving occupied orbitals to File 180.

*** tstop() called on cx1-3-15-3.cx1.hpc.ic.ac.uk at Tue Jul  5 16:46:59 2016
Module time:
	user time   =       6.51 seconds =       0.11 minutes
	system time =       0.04 seconds =       0.00 minutes
	total time  =          7 seconds =       0.12 minutes
Total time:
	user time   =       6.51 seconds =       0.11 minutes
	system time =       0.04 seconds =       0.00 minutes
	total time  =          7 seconds =       0.12 minutes


Properties will be evaluated at   0.000000,   0.000000,   0.000000 Bohr

Properties computed using the  density matrix

  Nuclear Dipole Moment: (a.u.)
     X:     3.3853      Y:    -2.3621      Z:     0.5012

  Electronic Dipole Moment: (a.u.)
     X:    -3.2092      Y:     1.4799      Z:     0.1953

  Dipole Moment: (a.u.)
     X:     0.1761      Y:    -0.8822      Z:     0.6965     Total:     1.1377

  Dipole Moment: (Debye)
     X:     0.4475      Y:    -2.2422      Z:     1.7704     Total:     2.8917

  Quadrupole Moment: (Debye Ang)
    XX:   -38.7557     YY:   -39.3096     ZZ:   -37.8077
    XY:     2.4890     XZ:    -1.1985     YZ:     1.0671

  Traceless Quadrupole Moment: (Debye Ang)
    XX:    -0.1314     YY:    -0.6853     ZZ:     0.8167
    XY:     2.4890     XZ:    -1.1985     YZ:     1.0671

  Mulliken Charges: (a.u.)
   Center  Symbol    Alpha    Beta     Spin     Total
       1     O     4.26249  4.26249  0.00000 -0.52497
       2     C     2.73714  2.73714  0.00000  0.52572
       3     C     3.20517  3.20517  0.00000 -0.41033
       4     C     3.28787  3.28787  0.00000 -0.57574
       5     C     3.15954  3.15954  0.00000 -0.31908
       6     H     0.41383  0.41383  0.00000  0.17234
       7     H     0.40170  0.40170  0.00000  0.19659
       8     C     3.24022  3.24022  0.00000 -0.48044
       9     H     0.41600  0.41600  0.00000  0.16799
      10     H     0.42057  0.42057  0.00000  0.15886
      11     H     0.42792  0.42792  0.00000  0.14416
      12     H     0.42380  0.42380  0.00000  0.15241
      13     H     0.39091  0.39091  0.00000  0.21818
      14     H     0.40930  0.40930  0.00000  0.18140
      15     H     0.39740  0.39740  0.00000  0.20519
      16     H     0.40614  0.40614  0.00000  0.18773

   Total alpha = 24.00000, Total beta = 24.00000, Total charge =  0.00000


*** PSI4 exiting successfully. Buy a developer a beer!
