
    -----------------------------------------------------------------------
          Psi4: An Open-Source Ab Initio Electronic Structure Package
                               Psi4 1.1 release

                         Git: Rev {HEAD} add49b9 


    R. M. Parrish, L. A. Burns, D. G. A. Smith, A. C. Simmonett,
    A. E. DePrince III, E. G. Hohenstein, U. Bozkaya, A. Yu. Sokolov,
    R. Di Remigio, R. M. Richard, J. F. Gonthier, A. M. James,
    H. R. McAlexander, A. Kumar, M. Saitow, X. Wang, B. P. Pritchard,
    P. Verma, H. F. Schaefer III, K. Patkowski, R. A. King, E. F. Valeev,
    F. A. Evangelista, J. M. Turney, T. D. Crawford, and C. D. Sherrill,
    J. Chem. Theory Comput. in press (2017).
    (doi: 10.1021/acs.jctc.7b00174)

    -----------------------------------------------------------------------


    Psi4 started on: Tuesday, 12 December 2017 11:17AM

    Process ID:  26941
    PSIDATADIR: /shared/raimis/opt/miniconda/envs/htmd/share/psi4
    Memory:     500.0 MiB
    Threads:    1
    
  ==> Input File <==

--------------------------------------------------------------------------
set_num_threads(1)
set_memory(4203741184)

set { reference rks }
set { basis cc-pVDZ }

molecule MOL {
    0 1
    noreorient
    nocom
    symmetry c1
    O    1.050400   0.042900  -0.048100
    C    2.474100   0.047400  -0.029000
    C    3.002600  -1.068900  -0.932000
    N    4.299174  -0.735177  -1.519386
    H    0.760400   0.728400   0.578000
    H    2.809900  -0.097900   1.003200
    H    2.817400   1.026800  -0.378600
    H    2.278327  -1.276582  -1.728263
    H    3.092098  -1.993297  -0.350161
    H    4.188534   0.053920  -2.155442
    H    4.608938  -1.517093  -2.096365
}

set optking { frozen_dihedral = (" 1 2 3 4 ") }

energy, wfn = energy('B3LYP-D3', return_wfn=True)

import os
os.chdir(os.environ['HTMD_PSI4_WORKDIR'])

oeprop(wfn, 'DIPOLE', 'QUADRUPOLE', 'MULLIKEN_CHARGES')

with open('psi4out.xyz', 'w') as f:
    f.write('11 ' )
    f.write('%.12f\n' % energy)
    f.write(MOL.save_string_xyz())
--------------------------------------------------------------------------
  Threads set to 1 by Python driver.

  Memory set to   3.915 GiB by Python driver.

*** tstart() called on computer06
*** at Tue Dec 12 11:17:54 2017

   => Loading Basis Set <=

    Name: CC-PVDZ
    Role: ORBITAL
    Keyword: BASIS
    atoms 1    entry O          line   190 file /shared/raimis/opt/miniconda/envs/htmd/share/psi4/basis/cc-pvdz.gbs 
    atoms 2-3  entry C          line   130 file /shared/raimis/opt/miniconda/envs/htmd/share/psi4/basis/cc-pvdz.gbs 
    atoms 4    entry N          line   160 file /shared/raimis/opt/miniconda/envs/htmd/share/psi4/basis/cc-pvdz.gbs 
    atoms 5-11 entry H          line    20 file /shared/raimis/opt/miniconda/envs/htmd/share/psi4/basis/cc-pvdz.gbs 


         ---------------------------------------------------------
                                   SCF
            by Justin Turney, Rob Parrish, and Andy Simmonett
                              RKS Reference
                        1 Threads,   4009 MiB Core
         ---------------------------------------------------------

  ==> Geometry <==

    Molecular point group: c1
    Full point group: C1

    Geometry (in Angstrom), charge = 0, multiplicity = 1:

       Center              X                  Y                   Z               Mass       
    ------------   -----------------  -----------------  -----------------  -----------------
           O          1.050400000000     0.042900000000    -0.048100000000    15.994914619560
           C          2.474100000000     0.047400000000    -0.029000000000    12.000000000000
           C          3.002600000000    -1.068900000000    -0.932000000000    12.000000000000
           N          4.299174000000    -0.735177000000    -1.519386000000    14.003074004780
           H          0.760400000000     0.728400000000     0.578000000000     1.007825032070
           H          2.809900000000    -0.097900000000     1.003200000000     1.007825032070
           H          2.817400000000     1.026800000000    -0.378600000000     1.007825032070
           H          2.278327000000    -1.276582000000    -1.728263000000     1.007825032070
           H          3.092098000000    -1.993297000000    -0.350161000000     1.007825032070
           H          4.188534000000     0.053920000000    -2.155442000000     1.007825032070
           H          4.608938000000    -1.517093000000    -2.096365000000     1.007825032070

  Running in c1 symmetry.

  Rotational constants: A =      0.62220  B =      0.02827  C =      0.02769 [cm^-1]
  Rotational constants: A =  18653.22135  B =    847.54271  C =    830.22562 [MHz]
  Nuclear repulsion =  130.618173885637617

  Charge       = 0
  Multiplicity = 1
  Electrons    = 34
  Nalpha       = 17
  Nbeta        = 17

  ==> Algorithm <==

  SCF Algorithm Type is DF.
  DIIS enabled.
  MOM disabled.
  Fractional occupation disabled.
  Guess Type is SAD.
  Energy threshold   = 1.00e-06
  Density threshold  = 1.00e-06
  Integral threshold = 0.00e+00

  ==> Primary Basis <==

  Basis Set: CC-PVDZ
    Blend: CC-PVDZ
    Number of shells: 45
    Number of basis function: 91
    Number of Cartesian functions: 95
    Spherical Harmonics?: true
    Max angular momentum: 2

  ==> DFT Potential <==

   => B3LYP Composite Functional <= 

    B3LYP Hybrid-GGA Exchange-Correlation Functional (VWN1-RPA)

    P.J. Stephens et. al., J. Phys. Chem., 98, 11623-11627, 1994

    Points   =           5000
    Deriv    =              1
    GGA      =           TRUE
    Meta     =          FALSE

    X_LRC        =          FALSE
    X_Hybrid     =           TRUE
    X_Alpha      =   2.000000E-01
    X_Omega      =   0.000000E+00
    C_LRC        =          FALSE
    C_Hybrid     =          FALSE
    C_Alpha      =   0.000000E+00
    C_Omega      =   0.000000E+00

   => Exchange Functionals <=

    0.8000    B3_X
    0.2000      HF 

   => Correlation Functionals <=

    0.1900 VWN3RPA_C
    0.8100   LYP_C

   => Molecular Quadrature <=

    Radial Scheme    =       TREUTLER
    Pruning Scheme   =           FLAT
    Nuclear Scheme   =       TREUTLER

    BS radius alpha  =              1
    Pruning alpha    =              1
    Radial Points    =             75
    Spherical Points =            302
    Total Points     =         245089
    Total Blocks     =            230
    Max Points       =           4813
    Max Functions    =             91

   => -D3ZERO: Empirical Dispersion <=

    Grimme's -D3 (zero-damping) Dispersion Correction
    Grimme S.; Antony J.; Ehrlich S.; Krieg H. (2010), J. Chem. Phys., 132: 154104

        S6 =   1.000000E+00
        S8 =   1.703000E+00
       SR6 =   1.261000E+00
    ALPHA6 =   1.400000E+01

   => Loading Basis Set <=

    Name: (CC-PVDZ AUX)
    Role: JKFIT
    Keyword: DF_BASIS_SCF
    atoms 1    entry O          line   220 file /shared/raimis/opt/miniconda/envs/htmd/share/psi4/basis/cc-pvdz-jkfit.gbs 
    atoms 2-3  entry C          line   120 file /shared/raimis/opt/miniconda/envs/htmd/share/psi4/basis/cc-pvdz-jkfit.gbs 
    atoms 4    entry N          line   170 file /shared/raimis/opt/miniconda/envs/htmd/share/psi4/basis/cc-pvdz-jkfit.gbs 
    atoms 5-11 entry H          line    50 file /shared/raimis/opt/miniconda/envs/htmd/share/psi4/basis/cc-pvdz-jkfit.gbs 

  ==> Pre-Iterations <==

   -------------------------------------------------------
    Irrep   Nso     Nmo     Nalpha   Nbeta   Ndocc  Nsocc
   -------------------------------------------------------
     A         91      91       0       0       0       0
   -------------------------------------------------------
    Total      91      91      17      17      17       0
   -------------------------------------------------------

  ==> Integral Setup <==

  ==> DFJK: Density-Fitted J/K Matrices <==

    J tasked:                  Yes
    K tasked:                  Yes
    wK tasked:                  No
    OpenMP threads:              1
    Integrals threads:           1
    Memory (MB):              3006
    Algorithm:                Core
    Integral Cache:           NONE
    Schwarz Cutoff:          1E-12
    Fitting Condition:       1E-12

   => Auxiliary Basis Set <=

  Basis Set: (CC-PVDZ AUX)
    Blend: CC-PVDZ-JKFIT
    Number of shells: 159
    Number of basis function: 441
    Number of Cartesian functions: 499
    Spherical Harmonics?: true
    Max angular momentum: 3

  Minimum eigenvalue in the overlap matrix is 4.4680634054E-03.
  Using Symmetric Orthogonalization.

  SCF Guess: Superposition of Atomic Densities via on-the-fly atomic UHF.

  ==> Iterations <==

                           Total Energy        Delta E     RMS |[F,P]|

   @DF-RKS iter   0:  -210.84880572424493   -2.10849e+02   3.65998e-02 
   @DF-RKS iter   1:  -210.20934639909137    6.39459e-01   7.09369e-03 
   @DF-RKS iter   2:  -210.06281434722393    1.46532e-01   9.76652e-03 DIIS
   @DF-RKS iter   3:  -210.38755629652073   -3.24742e-01   6.12852e-04 DIIS
   @DF-RKS iter   4:  -210.38836056866666   -8.04272e-04   3.76293e-04 DIIS
   @DF-RKS iter   5:  -210.38886074205269   -5.00173e-04   5.11324e-05 DIIS
   @DF-RKS iter   6:  -210.38886824024021   -7.49819e-06   2.18897e-05 DIIS
   @DF-RKS iter   7:  -210.38886999017717   -1.74994e-06   2.88386e-06 DIIS
   @DF-RKS iter   8:  -210.38887002073707   -3.05599e-08   7.67611e-07 DIIS

  ==> Post-Iterations <==

    Orbital Energies (a.u.)
    -----------------------

    Doubly Occupied:                                                      

       1A    -19.126765     2A    -14.303486     3A    -10.223685  
       4A    -10.201129     5A     -1.009361     6A     -0.875699  
       7A     -0.712242     8A     -0.596736     9A     -0.507332  
      10A     -0.488251    11A     -0.443783    12A     -0.421096  
      13A     -0.388422    14A     -0.362914    15A     -0.323929  
      16A     -0.260163    17A     -0.229476  

    Virtual:                                                              

      18A      0.053121    19A      0.059776    20A      0.098009  
      21A      0.115069    22A      0.134132    23A      0.148982  
      24A      0.163595    25A      0.207155    26A      0.245331  
      27A      0.269140    28A      0.442268    29A      0.460599  
      30A      0.488292    31A      0.499065    32A      0.542437  
      33A      0.586451    34A      0.612756    35A      0.618001  
      36A      0.643871    37A      0.653853    38A      0.664905  
      39A      0.682902    40A      0.698445    41A      0.792583  
      42A      0.822987    43A      0.839254    44A      0.924233  
      45A      0.945193    46A      0.991903    47A      1.012653  
      48A      1.058253    49A      1.191697    50A      1.218605  
      51A      1.230264    52A      1.265048    53A      1.334637  
      54A      1.365258    55A      1.422231    56A      1.508679  
      57A      1.517675    58A      1.576918    59A      1.600488  
      60A      1.611486    61A      1.641718    62A      1.667403  
      63A      1.704895    64A      1.746375    65A      1.753004  
      66A      1.798168    67A      1.859099    68A      1.881477  
      69A      1.929485    70A      1.944696    71A      1.988481  
      72A      2.007915    73A      2.028569    74A      2.146533  
      75A      2.162131    76A      2.209088    77A      2.245427  
      78A      2.369151    79A      2.393897    80A      2.445419  
      81A      2.487946    82A      2.527956    83A      2.608461  
      84A      2.676950    85A      2.822756    86A      2.964994  
      87A      3.004884    88A      3.029771    89A      3.124502  
      90A      3.195065    91A      3.691635  

    Final Occupation by Irrep:
              A 
    DOCC [    17 ]

  Energy converged.

  @DF-RKS Final Energy:  -210.38887002073707

   => Energetics <=

    Nuclear Repulsion Energy =            130.6181738856376171
    One-Electron Energy =                -544.1817672816650884
    Two-Electron Energy =                 226.6680958376767876
    DFT Exchange-Correlation Energy =     -23.4885715223863585
    Empirical Dispersion Energy =          -0.0048009400000000
    PCM Polarization Energy =               0.0000000000000000
    EFP Energy =                            0.0000000000000000
    Total Energy =                       -210.3888700207370732



Properties will be evaluated at   0.000000,   0.000000,   0.000000 Bohr

Properties computed using the SCF density matrix

  Nuclear Dipole Moment: (a.u.)
     X:   173.6908      Y:   -26.4709      Z:   -41.4117

  Electronic Dipole Moment: (a.u.)
     X:  -173.6597      Y:    26.7267      Z:    41.3513

  Dipole Moment: (a.u.)
     X:     0.0311      Y:     0.2558      Z:    -0.0604     Total:     0.2647

  Dipole Moment: (Debye)
     X:     0.0791      Y:     0.6501      Z:    -0.1536     Total:     0.6727


*** tstop() called on computer06 at Tue Dec 12 11:18:18 2017
Module time:
	user time   =      23.00 seconds =       0.38 minutes
	system time =       0.17 seconds =       0.00 minutes
	total time  =         24 seconds =       0.40 minutes
Total time:
	user time   =      23.00 seconds =       0.38 minutes
	system time =       0.17 seconds =       0.00 minutes
	total time  =         24 seconds =       0.40 minutes


Properties will be evaluated at   0.000000,   0.000000,   0.000000 Bohr

Properties computed using the  density matrix

  Nuclear Dipole Moment: (a.u.)
     X:   173.6908      Y:   -26.4709      Z:   -41.4117

  Electronic Dipole Moment: (a.u.)
     X:  -173.6597      Y:    26.7267      Z:    41.3513

  Dipole Moment: (a.u.)
     X:     0.0311      Y:     0.2558      Z:    -0.0604     Total:     0.2647

  Dipole Moment: (Debye)
     X:     0.0791      Y:     0.6501      Z:    -0.1536     Total:     0.6727

  Quadrupole Moment: (Debye Ang)
    XX:   -29.1468     YY:   -22.9433     ZZ:   -21.0419
    XY:    -0.9063     XZ:    -4.0831     YZ:     1.8222

  Traceless Quadrupole Moment: (Debye Ang)
    XX:    -4.7694     YY:     1.4340     ZZ:     3.3354
    XY:    -0.9063     XZ:    -4.0831     YZ:     1.8222

  Mulliken Charges: (a.u.)
   Center  Symbol    Alpha    Beta     Spin     Total
       1     O     4.14036  4.14036  0.00000 -0.28071
       2     C     2.92787  2.92787  0.00000  0.14426
       3     C     2.98363  2.98363  0.00000  0.03273
       4     N     3.59558  3.59558  0.00000 -0.19115
       5     H     0.43052  0.43052  0.00000  0.13896
       6     H     0.49830  0.49830  0.00000  0.00339
       7     H     0.50404  0.50404  0.00000 -0.00807
       8     H     0.49890  0.49890  0.00000  0.00220
       9     H     0.49142  0.49142  0.00000  0.01717
      10     H     0.46508  0.46508  0.00000  0.06984
      11     H     0.46431  0.46431  0.00000  0.07138

   Total alpha = 17.00000, Total beta = 17.00000, Total charge = -0.00000


*** Psi4 exiting successfully. Buy a developer a beer!
