    -----------------------------------------------------------------------
          Psi4: An Open-Source Ab Initio Electronic Structure Package
                              Psi4 (no tag) Driver

                          Git: Rev {detached?}  

    J. M. Turney, A. C. Simmonett, R. M. Parrish, E. G. Hohenstein,
    F. A. Evangelista, J. T. Fermann, B. J. Mintz, L. A. Burns, J. J. Wilke,
    M. L. Abrams, N. J. Russ, M. L. Leininger, C. L. Janssen, E. T. Seidl,
    W. D. Allen, H. F. Schaefer, R. A. King, E. F. Valeev, C. D. Sherrill,
    and T. D. Crawford, WIREs Comput. Mol. Sci. 2, 556-565 (2012)
    (doi: 10.1002/wcms.93)

                         Additional Contributions by
    A. E. DePrince, M. Saitow, U. Bozkaya, A. Yu. Sokolov
    -----------------------------------------------------------------------


    Psi4 started on: Tue Jul  5 16:25:35 2016

    Process ID:   2720
    PSI4DATADIR: /export131/home/mjharvey/miniconda3/share
    Memory level set to 256.000 MB

  ==> Input File <==

--------------------------------------------------------------------------
set {
	reference rhf
	basis 6-31G*
}


set_num_threads( 1 )
memory 2 gb

molecule MOL {
0 1

H	 -3.269016	 -0.876744	 0.468090
C	 -2.809304	 0.000122	 0.025886
N	 -1.391456	 0.000019	 0.300661
H	 -3.037557	 -0.000063	 -1.044252
H	 -3.269223	 0.876956	 0.468000
C	 -0.938698	 -1.260315	 0.855960
C	 -0.995001	 1.107366	 1.148255
H	 -1.415561	 -1.470068	 1.818307
H	 -1.208979	 -2.059536	 0.173496
C	 0.570555	 -1.247335	 1.041847
H	 -1.306372	 2.034925	 0.678959
H	 -1.475589	 1.054347	 2.129954
C	 0.514253	 1.120346	 1.334142
H	 0.881927	 -2.174894	 1.511142
H	 1.051143	 -1.194315	 0.060149
N	 0.967010	 -0.139988	 1.889441
H	 0.784533	 1.919567	 2.016607
H	 0.991115	 1.330099	 0.371795
C	 2.384858	 -0.140091	 2.164217
H	 2.667555	 -1.075219	 2.634739
H	 2.626408	 0.664792	 2.849523
H	 2.994869	 -0.014712	 1.264516

	symmetry c1
}
ee = energy('scf')
oeprop('DIPOLE', 'QUADRUPOLE', 'MULLIKEN_CHARGES')
f=open( 'psi4out.xyz', 'w' )
f.write( "22  " )
f.write( str(ee) + "\n" )
f.write( MOL.save_string_xyz() )
f.close()
--------------------------------------------------------------------------

  Memory set to   2.000 GiB by Python script.

*** tstart() called on cx1-3-4-4.cx1.hpc.ic.ac.uk
*** at Tue Jul  5 16:25:36 2016


         ---------------------------------------------------------
                                   SCF
            by Justin Turney, Rob Parrish, and Andy Simmonett
                              RHF Reference
                        1 Threads,   2000 MiB Core
         ---------------------------------------------------------

  ==> Geometry <==

    Molecular point group: c1
    Full point group: C1

    Geometry (in Angstrom), charge = 0, multiplicity = 1:

       Center              X                  Y                   Z               Mass       
    ------------   -----------------  -----------------  -----------------  -----------------
           H         -3.056672774507    -0.806714617772    -0.627582064295     1.007825032070
           C         -2.596960774507     0.070151382228    -1.069786064295    12.000000000000
           N         -1.179112774507     0.070048382228    -0.795011064295    14.003074004780
           H         -2.825213774507     0.069966382228    -2.139924064295     1.007825032070
           H         -3.056879774507     0.946985382228    -0.627672064295     1.007825032070
           C         -0.726354774507    -1.190285617772    -0.239712064295    12.000000000000
           C         -0.782657774507     1.177395382228     0.052582935705    12.000000000000
           H         -1.203217774507    -1.400038617772     0.722634935705     1.007825032070
           H         -0.996635774507    -1.989506617772    -0.922176064295     1.007825032070
           C          0.782898225493    -1.177305617772    -0.053825064295    12.000000000000
           H         -1.094028774507     2.104954382228    -0.416713064295     1.007825032070
           H         -1.263245774507     1.124376382228     1.034281935705     1.007825032070
           C          0.726596225493     1.190375382228     0.238469935705    12.000000000000
           H          1.094270225493    -2.104864617772     0.415469935705     1.007825032070
           H          1.263486225493    -1.124285617772    -1.035523064295     1.007825032070
           N          1.179353225493    -0.069958617772     0.793768935705    14.003074004780
           H          0.996876225493     1.989596382228     0.920934935705     1.007825032070
           H          1.203458225493     1.400128382228    -0.723877064295     1.007825032070
           C          2.597201225493    -0.070061617772     1.068544935705    12.000000000000
           H          2.879898225493    -1.005189617772     1.539066935705     1.007825032070
           H          2.838751225493     0.734821382228     1.753850935705     1.007825032070
           H          3.207212225493     0.055317382228     0.168843935705     1.007825032070

  Running in c1 symmetry.

  Rotational constants: A =      0.15409  B =      0.04760  C =      0.03875 [cm^-1]
  Rotational constants: A =   4619.64034  B =   1426.96732  C =   1161.77182 [MHz]
  Nuclear repulsion =  421.540954722876734

  Charge       = 0
  Multiplicity = 1
  Electrons    = 64
  Nalpha       = 32
  Nbeta        = 32

  ==> Algorithm <==

  SCF Algorithm Type is DF.
  DIIS enabled.
  MOM disabled.
  Fractional occupation disabled.
  Guess Type is CORE.
  Energy threshold   = 1.00e-06
  Density threshold  = 1.00e-06
  Integral threshold = 0.00e+00

  ==> Primary Basis <==

  Basis Set: 6-31G*
    Number of shells: 76
    Number of basis function: 148
    Number of Cartesian functions: 148
    Spherical Harmonics?: false
    Max angular momentum: 2

  ==> Pre-Iterations <==

   -------------------------------------------------------
    Irrep   Nso     Nmo     Nalpha   Nbeta   Ndocc  Nsocc
   -------------------------------------------------------
     A        148     148       0       0       0       0
   -------------------------------------------------------
    Total     148     148      32      32      32       0
   -------------------------------------------------------

 OEINTS: Overlap, kinetic, potential, dipole, and quadrupole integrals
         stored in file 35.

  ==> Integral Setup <==

  ==> DFJK: Density-Fitted J/K Matrices <==

    J tasked:                  Yes
    K tasked:                  Yes
    wK tasked:                  No
    OpenMP threads:              1
    Integrals threads:           1
    Memory (MB):              1430
    Algorithm:                Core
    Integral Cache:           NONE
    Schwarz Cutoff:          1E-12
    Fitting Condition:       1E-12

   => Auxiliary Basis Set <=

  Basis Set: 
    Number of shells: 318
    Number of basis function: 998
    Number of Cartesian functions: 998
    Spherical Harmonics?: false
    Max angular momentum: 3

  Minimum eigenvalue in the overlap matrix is 3.0290017201E-03.
  Using Symmetric Orthogonalization.
  SCF Guess: Core (One-Electron) Hamiltonian.

  ==> Iterations <==

                           Total Energy        Delta E     RMS |[F,P]|

   @DF-RHF iter   1:  -245.00572680191380   -2.45006e+02   7.20803e-02 
   @DF-RHF iter   2:  -193.82705837368047    5.11787e+01   5.46841e-02 DIIS
   @DF-RHF iter   3:  -301.90877756689719   -1.08082e+02   4.35804e-02 DIIS
   @DF-RHF iter   4:  -340.00822109783343   -3.80994e+01   1.74725e-02 DIIS
   @DF-RHF iter   5:  -343.93509013709826   -3.92687e+00   4.65054e-03 DIIS
   @DF-RHF iter   6:  -344.19598649050289   -2.60896e-01   1.55927e-03 DIIS
   @DF-RHF iter   7:  -344.22157456555323   -2.55881e-02   3.34486e-04 DIIS
   @DF-RHF iter   8:  -344.22312291236807   -1.54835e-03   1.83072e-04 DIIS
   @DF-RHF iter   9:  -344.22347877643318   -3.55864e-04   9.94840e-05 DIIS
   @DF-RHF iter  10:  -344.22359632098681   -1.17545e-04   3.61676e-05 DIIS
   @DF-RHF iter  11:  -344.22361303625252   -1.67153e-05   5.33065e-06 DIIS
   @DF-RHF iter  12:  -344.22361360427266   -5.68020e-07   1.48972e-06 DIIS
   @DF-RHF iter  13:  -344.22361363893441   -3.46618e-08   3.84804e-07 DIIS

  ==> Post-Iterations <==

    Orbital Energies (a.u.)
    -----------------------

    Doubly Occupied:                                                      

       1A    -15.541511     2A    -15.538602     3A    -11.238650  
       4A    -11.238596     5A    -11.237654     6A    -11.237583  
       7A    -11.235643     8A    -11.234728     9A     -1.254734  
      10A     -1.203797    11A     -1.024435    12A     -0.991145  
      13A     -0.910582    14A     -0.867375    15A     -0.835322  
      16A     -0.755447    17A     -0.664341    18A     -0.635004  
      19A     -0.631143    20A     -0.624229    21A     -0.620348  
      22A     -0.578397    23A     -0.551539    24A     -0.550188  
      25A     -0.542267    26A     -0.518756    27A     -0.498208  
      28A     -0.486021    29A     -0.463914    30A     -0.455079  
      31A     -0.348542    32A     -0.342440  

    Virtual:                                                              

      33A      0.235822    34A      0.245234    35A      0.275671  
      36A      0.286921    37A      0.292001    38A      0.305314  
      39A      0.309067    40A      0.319812    41A      0.333231  
      42A      0.335600    43A      0.339117    44A      0.342308  
      45A      0.360069    46A      0.362127    47A      0.367663  
      48A      0.389845    49A      0.425985    50A      0.449128  
      51A      0.466605    52A      0.474662    53A      0.482787  
      54A      0.499145    55A      0.722410    56A      0.741632  
      57A      0.745116    58A      0.769701    59A      0.788592  
      60A      0.792411    61A      0.803275    62A      0.855720  
      63A      0.870341    64A      0.880618    65A      0.919872  
      66A      0.928807    67A      0.946536    68A      0.990122  
      69A      0.991914    70A      1.013480    71A      1.078043  
      72A      1.086017    73A      1.107080    74A      1.120136  
      75A      1.121075    76A      1.136565    77A      1.152606  
      78A      1.156802    79A      1.166513    80A      1.170490  
      81A      1.175288    82A      1.196929    83A      1.202571  
      84A      1.207808    85A      1.236958    86A      1.244694  
      87A      1.249180    88A      1.260285    89A      1.293134  
      90A      1.297349    91A      1.368172    92A      1.415945  
      93A      1.514347    94A      1.570224    95A      1.598561  
      96A      1.638517    97A      1.663658    98A      1.692189  
      99A      1.716780   100A      1.772170   101A      1.820201  
     102A      1.917118   103A      1.998313   104A      2.066529  
     105A      2.115673   106A      2.141546   107A      2.163834  
     108A      2.201287   109A      2.218950   110A      2.235326  
     111A      2.316044   112A      2.339812   113A      2.346315  
     114A      2.364054   115A      2.378857   116A      2.412600  
     117A      2.418034   118A      2.435734   119A      2.461993  
     120A      2.496168   121A      2.557351   122A      2.573548  
     123A      2.585846   124A      2.626653   125A      2.645188  
     126A      2.679040   127A      2.685047   128A      2.689622  
     129A      2.792986   130A      2.812775   131A      2.861791  
     132A      2.937767   133A      2.960425   134A      2.978368  
     135A      3.153507   136A      3.179371   137A      3.183262  
     138A      3.209483   139A      3.265551   140A      3.317075  
     141A      4.498288   142A      4.537688   143A      4.670393  
     144A      4.686668   145A      4.708125   146A      4.835333  
     147A      4.972616   148A      4.980081  

    Final Occupation by Irrep:
              A 
    DOCC [    32 ]

  Energy converged.

  @DF-RHF Final Energy:  -344.22361363893441

   => Energetics <=

    Nuclear Repulsion Energy =            421.5409547228767337
    One-Electron Energy =               -1301.8163531886352757
    Two-Electron Energy =                 536.0517848268241323
    DFT Exchange-Correlation Energy =       0.0000000000000000
    Empirical Dispersion Energy =           0.0000000000000000
    PCM Polarization Energy =               0.0000000000000000
    EFP Energy =                            0.0000000000000000
    Total Energy =                       -344.2236136389344665

    Alert: EFP and PCM quantities not currently incorporated into SCF psivars.

Properties will be evaluated at   0.000000,   0.000000,   0.000000 Bohr
  ==> Properties <==


Properties computed using the SCF density matrix

  Nuclear Dipole Moment: (a.u.)
     X:    -0.0112      Y:    -0.0042      Z:     0.0578

  Electronic Dipole Moment: (a.u.)
     X:    -0.0266      Y:     0.0064      Z:    -0.0185

  Dipole Moment: (a.u.)
     X:    -0.0378      Y:     0.0022      Z:     0.0392     Total:     0.0545

  Dipole Moment: (Debye)
     X:    -0.0960      Y:     0.0057      Z:     0.0997     Total:     0.1385


  Saving occupied orbitals to File 180.

*** tstop() called on cx1-3-4-4.cx1.hpc.ic.ac.uk at Tue Jul  5 16:25:52 2016
Module time:
	user time   =      16.14 seconds =       0.27 minutes
	system time =       0.16 seconds =       0.00 minutes
	total time  =         16 seconds =       0.27 minutes
Total time:
	user time   =      16.14 seconds =       0.27 minutes
	system time =       0.16 seconds =       0.00 minutes
	total time  =         16 seconds =       0.27 minutes


Properties will be evaluated at   0.000000,   0.000000,   0.000000 Bohr

Properties computed using the  density matrix

  Nuclear Dipole Moment: (a.u.)
     X:    -0.0112      Y:    -0.0042      Z:     0.0578

  Electronic Dipole Moment: (a.u.)
     X:    -0.0266      Y:     0.0064      Z:    -0.0185

  Dipole Moment: (a.u.)
     X:    -0.0378      Y:     0.0022      Z:     0.0392     Total:     0.0545

  Dipole Moment: (Debye)
     X:    -0.0960      Y:     0.0057      Z:     0.0997     Total:     0.1385

  Quadrupole Moment: (Debye Ang)
    XX:   -48.6331     YY:   -48.8785     ZZ:   -55.2764
    XY:    -0.1771     XZ:     0.7338     YZ:     0.8058

  Traceless Quadrupole Moment: (Debye Ang)
    XX:     2.2962     YY:     2.0509     ZZ:    -4.3471
    XY:    -0.1771     XZ:     0.7338     YZ:     0.8058

  Mulliken Charges: (a.u.)
   Center  Symbol    Alpha    Beta     Spin     Total
       1     H     0.42444  0.42444  0.00000  0.15112
       2     C     3.13949  3.13949  0.00000 -0.27898
       3     N     3.78605  3.78605  0.00000 -0.57210
       4     H     0.41730  0.41730  0.00000  0.16541
       5     H     0.42172  0.42172  0.00000  0.15657
       6     C     3.06000  3.06000  0.00000 -0.12001
       7     C     3.05994  3.05994  0.00000 -0.11988
       8     H     0.42843  0.42843  0.00000  0.14314
       9     H     0.41665  0.41665  0.00000  0.16670
      10     C     3.05625  3.05625  0.00000 -0.11251
      11     H     0.41681  0.41681  0.00000  0.16638
      12     H     0.42874  0.42874  0.00000  0.14252
      13     C     3.05630  3.05630  0.00000 -0.11260
      14     H     0.41825  0.41825  0.00000  0.16350
      15     H     0.42842  0.42842  0.00000  0.14316
      16     N     3.78717  3.78717  0.00000 -0.57435
      17     H     0.41828  0.41828  0.00000  0.16344
      18     H     0.42846  0.42846  0.00000  0.14307
      19     C     3.14014  3.14014  0.00000 -0.28029
      20     H     0.41686  0.41686  0.00000  0.16628
      21     H     0.41685  0.41685  0.00000  0.16631
      22     H     0.43344  0.43344  0.00000  0.13313

   Total alpha = 32.00000, Total beta = 32.00000, Total charge =  0.00000


*** PSI4 exiting successfully. Buy a developer a beer!
