    -----------------------------------------------------------------------
          Psi4: An Open-Source Ab Initio Electronic Structure Package
                              Psi4 (no tag) Driver

                          Git: Rev {detached?}  

    J. M. Turney, A. C. Simmonett, R. M. Parrish, E. G. Hohenstein,
    F. A. Evangelista, J. T. Fermann, B. J. Mintz, L. A. Burns, J. J. Wilke,
    M. L. Abrams, N. J. Russ, M. L. Leininger, C. L. Janssen, E. T. Seidl,
    W. D. Allen, H. F. Schaefer, R. A. King, E. F. Valeev, C. D. Sherrill,
    and T. D. Crawford, WIREs Comput. Mol. Sci. 2, 556-565 (2012)
    (doi: 10.1002/wcms.93)

                         Additional Contributions by
    A. E. DePrince, M. Saitow, U. Bozkaya, A. Yu. Sokolov
    -----------------------------------------------------------------------


    Psi4 started on: Tue Jul  5 16:47:04 2016

    Process ID:   7097
    PSI4DATADIR: /export131/home/mjharvey/miniconda3/share
    Memory level set to 256.000 MB

  ==> Input File <==

--------------------------------------------------------------------------
set {
	reference rhf
	basis 6-31G*
}


set_num_threads( 1 )
memory 2 gb

molecule MOL {
0 1

O	 1.093601	 1.449830	 -2.053515
C	 0.140502	 1.681556	 -1.381988
C	 -1.132561	 0.871331	 -1.354793
O	 0.072778	 2.711207	 -0.547598
C	 -1.412532	 0.227344	 -0.000452
H	 -1.943418	 1.530676	 -1.652331
H	 -1.057793	 0.122680	 -2.138812
C	 -2.706999	 -0.587347	 -0.000541
H	 -1.464140	 1.000268	 0.760093
H	 -0.576961	 -0.409417	 0.273154
C	 -3.956778	 0.291888	 0.000910
H	 -2.726114	 -1.239230	 -0.871609
H	 -2.725217	 -1.240844	 0.869333
H	 -3.985213	 0.933254	 -0.875158
H	 -4.860123	 -0.309979	 0.000519
H	 -3.984618	 0.931166	 0.878514
C	 1.206882	 3.556096	 -0.476092
H	 2.074636	 3.000650	 -0.150562
H	 0.960406	 4.320585	 0.244154
H	 1.410732	 4.000907	 -1.439469

	symmetry c1
}
set optking {
	frozen_dihedral = ("
		9 5 8 12,
		9 5 3 6,
		1 2 4 17
	")
}

ee = energy('scf')
oeprop('DIPOLE', 'QUADRUPOLE', 'MULLIKEN_CHARGES')
f=open( 'psi4out.xyz', 'w' )
f.write( "20  " )
f.write( str(ee) + "\n" )
f.write( MOL.save_string_xyz() )
f.close()
--------------------------------------------------------------------------

  Memory set to   2.000 GiB by Python script.

*** tstart() called on cx1-3-16-2.cx1.hpc.ic.ac.uk
*** at Tue Jul  5 16:47:05 2016


         ---------------------------------------------------------
                                   SCF
            by Justin Turney, Rob Parrish, and Andy Simmonett
                              RHF Reference
                        1 Threads,   2000 MiB Core
         ---------------------------------------------------------

  ==> Geometry <==

    Molecular point group: c1
    Full point group: C1

    Geometry (in Angstrom), charge = 0, multiplicity = 1:

       Center              X                  Y                   Z               Mass       
    ------------   -----------------  -----------------  -----------------  -----------------
           O          1.909453853437     0.142278303965    -1.327363916924    15.994914619560
           C          0.956354853437     0.374004303965    -0.655836916924    12.000000000000
           C         -0.316708146563    -0.436220696035    -0.628641916924    12.000000000000
           O          0.888630853437     1.403655303965     0.178553083076    15.994914619560
           C         -0.596679146563    -1.080207696035     0.725699083076    12.000000000000
           H         -1.127565146563     0.223124303965    -0.926179916924     1.007825032070
           H         -0.241940146563    -1.184871696035    -1.412660916924     1.007825032070
           C         -1.891146146563    -1.894898696035     0.725610083076    12.000000000000
           H         -0.648287146563    -0.307283696035     1.486244083076     1.007825032070
           H          0.238891853437    -1.716968696035     0.999305083076     1.007825032070
           C         -3.140925146563    -1.015663696035     0.727061083076    12.000000000000
           H         -1.910261146563    -2.546781696035    -0.145457916924     1.007825032070
           H         -1.909364146563    -2.548395696035     1.595484083076     1.007825032070
           H         -3.169360146563    -0.374297696035    -0.149006916924     1.007825032070
           H         -4.044270146563    -1.617530696035     0.726670083076     1.007825032070
           H         -3.168765146563    -0.376385696035     1.604665083076     1.007825032070
           C          2.022734853437     2.248544303965     0.250059083076    12.000000000000
           H          2.890488853437     1.693098303965     0.575589083076     1.007825032070
           H          1.776258853437     3.013033303965     0.970305083076     1.007825032070
           H          2.226584853437     2.693355303965    -0.713317916924     1.007825032070

  Running in c1 symmetry.

  Rotational constants: A =      0.14988  B =      0.03044  C =      0.02764 [cm^-1]
  Rotational constants: A =   4493.40616  B =    912.67332  C =    828.53456 [MHz]
  Nuclear repulsion =  387.891560129145432

  Charge       = 0
  Multiplicity = 1
  Electrons    = 64
  Nalpha       = 32
  Nbeta        = 32

  ==> Algorithm <==

  SCF Algorithm Type is DF.
  DIIS enabled.
  MOM disabled.
  Fractional occupation disabled.
  Guess Type is CORE.
  Energy threshold   = 1.00e-06
  Density threshold  = 1.00e-06
  Integral threshold = 0.00e+00

  ==> Primary Basis <==

  Basis Set: 6-31G*
    Number of shells: 72
    Number of basis function: 144
    Number of Cartesian functions: 144
    Spherical Harmonics?: false
    Max angular momentum: 2

  ==> Pre-Iterations <==

   -------------------------------------------------------
    Irrep   Nso     Nmo     Nalpha   Nbeta   Ndocc  Nsocc
   -------------------------------------------------------
     A        144     144       0       0       0       0
   -------------------------------------------------------
    Total     144     144      32      32      32       0
   -------------------------------------------------------

 OEINTS: Overlap, kinetic, potential, dipole, and quadrupole integrals
         stored in file 35.

  ==> Integral Setup <==

  ==> DFJK: Density-Fitted J/K Matrices <==

    J tasked:                  Yes
    K tasked:                  Yes
    wK tasked:                  No
    OpenMP threads:              1
    Integrals threads:           1
    Memory (MB):              1430
    Algorithm:                Core
    Integral Cache:           NONE
    Schwarz Cutoff:          1E-12
    Fitting Condition:       1E-12

   => Auxiliary Basis Set <=

  Basis Set: 
    Number of shells: 300
    Number of basis function: 948
    Number of Cartesian functions: 948
    Spherical Harmonics?: false
    Max angular momentum: 3

  Minimum eigenvalue in the overlap matrix is 2.9447808072E-03.
  Using Symmetric Orthogonalization.
  SCF Guess: Core (One-Electron) Hamiltonian.

  ==> Iterations <==

                           Total Energy        Delta E     RMS |[F,P]|

   @DF-RHF iter   1:  -266.16688029004320   -2.66167e+02   7.67677e-02 
   @DF-RHF iter   2:  -120.86036209457791    1.45307e+02   8.35753e-02 DIIS
   @DF-RHF iter   3:  -246.26536608827428   -1.25405e+02   6.00633e-02 DIIS
   @DF-RHF iter   4:  -279.15074243674042   -3.28854e+01   6.02242e-02 DIIS
   @DF-RHF iter   5:  -369.37402868956383   -9.02233e+01   3.08130e-02 DIIS
   @DF-RHF iter   6:  -383.06856236484180   -1.36945e+01   9.17243e-03 DIIS
   @DF-RHF iter   7:  -383.88352274649378   -8.14960e-01   2.06342e-03 DIIS
   @DF-RHF iter   8:  -383.92719435925630   -4.36716e-02   1.03891e-03 DIIS
   @DF-RHF iter   9:  -383.93708212938020   -9.88777e-03   2.06644e-04 DIIS
   @DF-RHF iter  10:  -383.93783887685925   -7.56747e-04   8.74327e-05 DIIS
   @DF-RHF iter  11:  -383.93796440440303   -1.25528e-04   3.85266e-05 DIIS
   @DF-RHF iter  12:  -383.93798865893336   -2.42545e-05   1.26669e-05 DIIS
   @DF-RHF iter  13:  -383.93799139269038   -2.73376e-06   4.19384e-06 DIIS
   @DF-RHF iter  14:  -383.93799187938100   -4.86691e-07   1.91420e-06 DIIS
   @DF-RHF iter  15:  -383.93799197503392   -9.56529e-08   3.96318e-07 DIIS

  ==> Post-Iterations <==

    Orbital Energies (a.u.)
    -----------------------

    Doubly Occupied:                                                      

       1A    -20.604158     2A    -20.544155     3A    -11.371211  
       4A    -11.280908     5A    -11.233853     6A    -11.227839  
       7A    -11.224021     8A    -11.214534     9A     -1.469047  
      10A     -1.361695    11A     -1.095075    12A     -1.023142  
      13A     -0.965416    14A     -0.898090    15A     -0.802675  
      16A     -0.774105    17A     -0.699192    18A     -0.679317  
      19A     -0.672697    20A     -0.633784    21A     -0.617323  
      22A     -0.578278    23A     -0.572911    24A     -0.564193  
      25A     -0.527958    26A     -0.522575    27A     -0.516559  
      28A     -0.486471    29A     -0.478625    30A     -0.468853  
      31A     -0.454460    32A     -0.430022  

    Virtual:                                                              

      33A      0.195641    34A      0.233634    35A      0.259190  
      36A      0.263846    37A      0.272523    38A      0.291865  
      39A      0.305510    40A      0.311335    41A      0.322571  
      42A      0.326007    43A      0.332862    44A      0.337465  
      45A      0.347684    46A      0.383605    47A      0.393848  
      48A      0.436184    49A      0.444752    50A      0.464931  
      51A      0.528634    52A      0.569161    53A      0.703801  
      54A      0.713164    55A      0.733923    56A      0.737898  
      57A      0.746850    58A      0.755894    59A      0.788013  
      60A      0.795131    61A      0.834518    62A      0.892425  
      63A      0.910380    64A      0.938057    65A      0.947858  
      66A      0.963586    67A      0.988189    68A      1.003776  
      69A      1.088040    70A      1.094907    71A      1.112037  
      72A      1.121308    73A      1.131790    74A      1.145385  
      75A      1.149000    76A      1.154086    77A      1.188004  
      78A      1.192560    79A      1.206375    80A      1.217797  
      81A      1.222418    82A      1.235071    83A      1.247597  
      84A      1.278305    85A      1.306043    86A      1.349958  
      87A      1.360895    88A      1.380017    89A      1.411325  
      90A      1.479111    91A      1.529924    92A      1.649704  
      93A      1.660639    94A      1.696882    95A      1.751060  
      96A      1.796834    97A      1.833504    98A      1.845318  
      99A      1.917716   100A      1.939387   101A      2.006325  
     102A      2.022417   103A      2.066449   104A      2.097889  
     105A      2.116943   106A      2.160603   107A      2.205652  
     108A      2.219194   109A      2.236032   110A      2.258111  
     111A      2.311695   112A      2.349150   113A      2.371841  
     114A      2.401182   115A      2.431611   116A      2.435694  
     117A      2.473370   118A      2.513978   119A      2.615242  
     120A      2.622345   121A      2.648987   122A      2.677501  
     123A      2.705864   124A      2.736111   125A      2.766332  
     126A      2.774184   127A      2.881870   128A      2.916433  
     129A      2.973539   130A      3.011444   131A      3.074757  
     132A      3.102862   133A      3.168343   134A      3.347294  
     135A      3.423160   136A      3.557331   137A      4.433267  
     138A      4.521489   139A      4.611842   140A      4.659380  
     141A      4.721776   142A      4.820377   143A      4.883019  
     144A      5.014403  

    Final Occupation by Irrep:
              A 
    DOCC [    32 ]

  Energy converged.

  @DF-RHF Final Energy:  -383.93799197503392

   => Energetics <=

    Nuclear Repulsion Energy =            387.8915601291454323
    One-Electron Energy =               -1291.6728945252025369
    Two-Electron Energy =                 519.8433424210235216
    DFT Exchange-Correlation Energy =       0.0000000000000000
    Empirical Dispersion Energy =           0.0000000000000000
    PCM Polarization Energy =               0.0000000000000000
    EFP Energy =                            0.0000000000000000
    Total Energy =                       -383.9379919750335830

    Alert: EFP and PCM quantities not currently incorporated into SCF psivars.

Properties will be evaluated at   0.000000,   0.000000,   0.000000 Bohr
  ==> Properties <==


Properties computed using the SCF density matrix

  Nuclear Dipole Moment: (a.u.)
     X:    -8.5059      Y:    -2.8518      Z:     4.3178

  Electronic Dipole Moment: (a.u.)
     X:     7.9869      Y:     3.1390      Z:    -3.7303

  Dipole Moment: (a.u.)
     X:    -0.5190      Y:     0.2872      Z:     0.5875     Total:     0.8349

  Dipole Moment: (Debye)
     X:    -1.3192      Y:     0.7300      Z:     1.4933     Total:     2.1220


  Saving occupied orbitals to File 180.

*** tstop() called on cx1-3-16-2.cx1.hpc.ic.ac.uk at Tue Jul  5 16:47:28 2016
Module time:
	user time   =      23.30 seconds =       0.39 minutes
	system time =       0.21 seconds =       0.00 minutes
	total time  =         23 seconds =       0.38 minutes
Total time:
	user time   =      23.30 seconds =       0.39 minutes
	system time =       0.21 seconds =       0.00 minutes
	total time  =         23 seconds =       0.38 minutes


Properties will be evaluated at   0.000000,   0.000000,   0.000000 Bohr

Properties computed using the  density matrix

  Nuclear Dipole Moment: (a.u.)
     X:    -8.5059      Y:    -2.8518      Z:     4.3178

  Electronic Dipole Moment: (a.u.)
     X:     7.9869      Y:     3.1390      Z:    -3.7303

  Dipole Moment: (a.u.)
     X:    -0.5190      Y:     0.2872      Z:     0.5875     Total:     0.8349

  Dipole Moment: (Debye)
     X:    -1.3192      Y:     0.7300      Z:     1.4933     Total:     2.1220

  Quadrupole Moment: (Debye Ang)
    XX:   -52.2263     YY:   -45.6625     ZZ:   -52.3559
    XY:     4.5938     XZ:     5.3273     YZ:    -0.3569

  Traceless Quadrupole Moment: (Debye Ang)
    XX:    -2.1447     YY:     4.4190     ZZ:    -2.2744
    XY:     4.5938     XZ:     5.3273     YZ:    -0.3569

  Mulliken Charges: (a.u.)
   Center  Symbol    Alpha    Beta     Spin     Total
       1     O     4.28524  4.28524  0.00000 -0.57048
       2     C     2.61473  2.61473  0.00000  0.77054
       3     C     3.19920  3.19920  0.00000 -0.39840
       4     O     4.30195  4.30195  0.00000 -0.60391
       5     C     3.16489  3.16489  0.00000 -0.32979
       6     H     0.40334  0.40334  0.00000  0.19333
       7     H     0.39972  0.39972  0.00000  0.20056
       8     C     3.15571  3.15571  0.00000 -0.31141
       9     H     0.40797  0.40797  0.00000  0.18407
      10     H     0.41228  0.41228  0.00000  0.17545
      11     C     3.24175  3.24175  0.00000 -0.48350
      12     H     0.42021  0.42021  0.00000  0.15957
      13     H     0.41672  0.41672  0.00000  0.16655
      14     H     0.42096  0.42096  0.00000  0.15808
      15     H     0.41693  0.41693  0.00000  0.16613
      16     H     0.41945  0.41945  0.00000  0.16110
      17     C     3.09238  3.09238  0.00000 -0.18477
      18     H     0.40894  0.40894  0.00000  0.18213
      19     H     0.40886  0.40886  0.00000  0.18228
      20     H     0.40877  0.40877  0.00000  0.18246

   Total alpha = 32.00000, Total beta = 32.00000, Total charge = -0.00000


*** PSI4 exiting successfully. Buy a developer a beer!
