    -----------------------------------------------------------------------
          Psi4: An Open-Source Ab Initio Electronic Structure Package
                              Psi4 (no tag) Driver

                          Git: Rev {detached?}  

    J. M. Turney, A. C. Simmonett, R. M. Parrish, E. G. Hohenstein,
    F. A. Evangelista, J. T. Fermann, B. J. Mintz, L. A. Burns, J. J. Wilke,
    M. L. Abrams, N. J. Russ, M. L. Leininger, C. L. Janssen, E. T. Seidl,
    W. D. Allen, H. F. Schaefer, R. A. King, E. F. Valeev, C. D. Sherrill,
    and T. D. Crawford, WIREs Comput. Mol. Sci. 2, 556-565 (2012)
    (doi: 10.1002/wcms.93)

                         Additional Contributions by
    A. E. DePrince, M. Saitow, U. Bozkaya, A. Yu. Sokolov
    -----------------------------------------------------------------------


    Psi4 started on: Tue Jul  5 16:33:20 2016

    Process ID:  23685
    PSI4DATADIR: /export131/home/mjharvey/miniconda3/share
    Memory level set to 256.000 MB

  ==> Input File <==

--------------------------------------------------------------------------
set {
	reference rhf
	basis 6-31G*
}


set_num_threads( 1 )
memory 2 gb

molecule MOL {
0 1

H	 -3.161837	 0.500524	 -0.000234
C	 -2.367097	 -0.232926	 -0.000000
O	 -1.158440	 0.455814	 -0.000122
H	 -2.468853	 -0.861886	 -0.882833
H	 -2.468942	 -0.861421	 0.883154
C	 -0.652141	 0.727246	 1.271829
C	 0.660571	 1.477254	 1.127132
H	 -0.498404	 -0.202648	 1.820975
H	 -1.367327	 1.322189	 1.841443
C	 1.290850	 1.817919	 2.476790
H	 1.340960	 0.869830	 0.538261
H	 0.478172	 2.384035	 0.558644
H	 1.504146	 0.921417	 3.052299
H	 2.225268	 2.352731	 2.343807
H	 0.634865	 2.445887	 3.073232

	symmetry c1
}
set optking {
	frozen_dihedral = ("
		11 7 6 8,
		8 6 3 2
	")
}

ee = energy('scf')
oeprop('DIPOLE', 'QUADRUPOLE', 'MULLIKEN_CHARGES')
f=open( 'psi4out.xyz', 'w' )
f.write( "15  " )
f.write( str(ee) + "\n" )
f.write( MOL.save_string_xyz() )
f.close()
--------------------------------------------------------------------------

  Memory set to   2.000 GiB by Python script.

*** tstart() called on cx1-3-16-3.cx1.hpc.ic.ac.uk
*** at Tue Jul  5 16:33:21 2016


         ---------------------------------------------------------
                                   SCF
            by Justin Turney, Rob Parrish, and Andy Simmonett
                              RHF Reference
                        1 Threads,   2000 MiB Core
         ---------------------------------------------------------

  ==> Geometry <==

    Molecular point group: c1
    Full point group: C1

    Geometry (in Angstrom), charge = 0, multiplicity = 1:

       Center              X                  Y                   Z               Mass       
    ------------   -----------------  -----------------  -----------------  -----------------
           H         -2.687245441560    -0.332499582096    -0.970076777147     1.007825032070
           C         -1.892505441560    -1.065949582096    -0.969842777147    12.000000000000
           O         -0.683848441560    -0.377209582096    -0.969964777147    15.994914619560
           H         -1.994261441560    -1.694909582096    -1.852675777147     1.007825032070
           H         -1.994350441560    -1.694444582096    -0.086688777147     1.007825032070
           C         -0.177549441560    -0.105777582096     0.301986222853    12.000000000000
           C          1.135162558440     0.644230417904     0.157289222853    12.000000000000
           H         -0.023812441560    -1.035671582096     0.851132222853     1.007825032070
           H         -0.892735441560     0.489165417904     0.871600222853     1.007825032070
           C          1.765441558440     0.984895417904     1.506947222853    12.000000000000
           H          1.815551558440     0.036806417904    -0.431581777147     1.007825032070
           H          0.952763558440     1.551011417904    -0.411198777147     1.007825032070
           H          1.978737558440     0.088393417904     2.082456222853     1.007825032070
           H          2.699859558440     1.519707417904     1.373964222853     1.007825032070
           H          1.109456558440     1.612863417904     2.103389222853     1.007825032070

  Running in c1 symmetry.

  Rotational constants: A =      0.69040  B =      0.07095  C =      0.06753 [cm^-1]
  Rotational constants: A =  20697.64489  B =   2126.98275  C =   2024.60821 [MHz]
  Nuclear repulsion =  189.773482779861922

  Charge       = 0
  Multiplicity = 1
  Electrons    = 42
  Nalpha       = 21
  Nbeta        = 21

  ==> Algorithm <==

  SCF Algorithm Type is DF.
  DIIS enabled.
  MOM disabled.
  Fractional occupation disabled.
  Guess Type is CORE.
  Energy threshold   = 1.00e-06
  Density threshold  = 1.00e-06
  Integral threshold = 0.00e+00

  ==> Primary Basis <==

  Basis Set: 6-31G*
    Number of shells: 50
    Number of basis function: 95
    Number of Cartesian functions: 95
    Spherical Harmonics?: false
    Max angular momentum: 2

  ==> Pre-Iterations <==

   -------------------------------------------------------
    Irrep   Nso     Nmo     Nalpha   Nbeta   Ndocc  Nsocc
   -------------------------------------------------------
     A         95      95       0       0       0       0
   -------------------------------------------------------
    Total      95      95      21      21      21       0
   -------------------------------------------------------

 OEINTS: Overlap, kinetic, potential, dipole, and quadrupole integrals
         stored in file 35.

  ==> Integral Setup <==

  ==> DFJK: Density-Fitted J/K Matrices <==

    J tasked:                  Yes
    K tasked:                  Yes
    wK tasked:                  No
    OpenMP threads:              1
    Integrals threads:           1
    Memory (MB):              1430
    Algorithm:                Core
    Integral Cache:           NONE
    Schwarz Cutoff:          1E-12
    Fitting Condition:       1E-12

   => Auxiliary Basis Set <=

  Basis Set: 
    Number of shells: 210
    Number of basis function: 655
    Number of Cartesian functions: 655
    Spherical Harmonics?: false
    Max angular momentum: 3

  Minimum eigenvalue in the overlap matrix is 4.0965913078E-03.
  Using Symmetric Orthogonalization.
  SCF Guess: Core (One-Electron) Hamiltonian.

  ==> Iterations <==

                           Total Energy        Delta E     RMS |[F,P]|

   @DF-RHF iter   1:  -182.05868747076278   -1.82059e+02   8.10328e-02 
   @DF-RHF iter   2:  -140.02495368905267    4.20337e+01   6.53343e-02 DIIS
   @DF-RHF iter   3:  -191.96873210776886   -5.19438e+01   5.97911e-02 DIIS
   @DF-RHF iter   4:  -216.78461163787421   -2.48159e+01   4.46534e-02 DIIS
   @DF-RHF iter   5:  -231.75300680380661   -1.49684e+01   9.16837e-03 DIIS
   @DF-RHF iter   6:  -232.08433509468404   -3.31328e-01   3.59214e-03 DIIS
   @DF-RHF iter   7:  -232.12727651998648   -4.29414e-02   1.24743e-03 DIIS
   @DF-RHF iter   8:  -232.13457568890959   -7.29917e-03   5.72234e-04 DIIS
   @DF-RHF iter   9:  -232.13624341935883   -1.66773e-03   1.55413e-04 DIIS
   @DF-RHF iter  10:  -232.13642038018651   -1.76961e-04   3.32188e-05 DIIS
   @DF-RHF iter  11:  -232.13643231156328   -1.19314e-05   8.87585e-06 DIIS
   @DF-RHF iter  12:  -232.13643314452372   -8.32960e-07   1.97760e-06 DIIS
   @DF-RHF iter  13:  -232.13643317589020   -3.13665e-08   4.88157e-07 DIIS

  ==> Post-Iterations <==

    Orbital Energies (a.u.)
    -----------------------

    Doubly Occupied:                                                      

       1A    -20.550971     2A    -11.266889     3A    -11.263540  
       4A    -11.214136     5A    -11.212906     6A     -1.377408  
       7A     -1.057089     8A     -0.954623     9A     -0.877723  
      10A     -0.809422    11A     -0.674416    12A     -0.651395  
      13A     -0.631235    14A     -0.608592    15A     -0.564301  
      16A     -0.543624    17A     -0.502445    18A     -0.488653  
      19A     -0.478418    20A     -0.461759    21A     -0.410019  

    Virtual:                                                              

      22A      0.234346    23A      0.248096    24A      0.290472  
      25A      0.296659    26A      0.305839    27A      0.324993  
      28A      0.330365    29A      0.334025    30A      0.348839  
      31A      0.353034    32A      0.368920    33A      0.415613  
      34A      0.442478    35A      0.471027    36A      0.725138  
      37A      0.729206    38A      0.747997    39A      0.765693  
      40A      0.781921    41A      0.816660    42A      0.834085  
      43A      0.854208    44A      0.933869    45A      0.978221  
      46A      1.012277    47A      1.053427    48A      1.119051  
      49A      1.134119    50A      1.140352    51A      1.152245  
      52A      1.176854    53A      1.181335    54A      1.192997  
      55A      1.220278    56A      1.235536    57A      1.240295  
      58A      1.259317    59A      1.316823    60A      1.398985  
      61A      1.430991    62A      1.618664    63A      1.667144  
      64A      1.680671    65A      1.715114    66A      1.779052  
      67A      1.805591    68A      1.884351    69A      2.031584  
      70A      2.139781    71A      2.152927    72A      2.275647  
      73A      2.288358    74A      2.300033    75A      2.344045  
      76A      2.446793    77A      2.464244    78A      2.507248  
      79A      2.521133    80A      2.575918    81A      2.620798  
      82A      2.679326    83A      2.689511    84A      2.766215  
      85A      2.864125    86A      2.885568    87A      2.924891  
      88A      3.043268    89A      3.230196    90A      3.364371  
      91A      4.404661    92A      4.595111    93A      4.664860  
      94A      4.748213    95A      4.927288  

    Final Occupation by Irrep:
              A 
    DOCC [    21 ]

  Energy converged.

  @DF-RHF Final Energy:  -232.13643317589020

   => Energetics <=

    Nuclear Repulsion Energy =            189.7734827798619222
    One-Electron Energy =                -690.6207159385467094
    Two-Electron Energy =                 268.7107999827947538
    DFT Exchange-Correlation Energy =       0.0000000000000000
    Empirical Dispersion Energy =           0.0000000000000000
    PCM Polarization Energy =               0.0000000000000000
    EFP Energy =                            0.0000000000000000
    Total Energy =                       -232.1364331758900335

    Alert: EFP and PCM quantities not currently incorporated into SCF psivars.

Properties will be evaluated at   0.000000,   0.000000,   0.000000 Bohr
  ==> Properties <==


Properties computed using the SCF density matrix

  Nuclear Dipole Moment: (a.u.)
     X:     0.9004      Y:     0.5048      Z:     3.3049

  Electronic Dipole Moment: (a.u.)
     X:    -1.1223      Y:    -0.6603      Z:    -2.8578

  Dipole Moment: (a.u.)
     X:    -0.2219      Y:    -0.1555      Z:     0.4471     Total:     0.5228

  Dipole Moment: (Debye)
     X:    -0.5641      Y:    -0.3953      Z:     1.1363     Total:     1.3288


  Saving occupied orbitals to File 180.

*** tstop() called on cx1-3-16-3.cx1.hpc.ic.ac.uk at Tue Jul  5 16:33:26 2016
Module time:
	user time   =       4.70 seconds =       0.08 minutes
	system time =       0.03 seconds =       0.00 minutes
	total time  =          5 seconds =       0.08 minutes
Total time:
	user time   =       4.70 seconds =       0.08 minutes
	system time =       0.03 seconds =       0.00 minutes
	total time  =          5 seconds =       0.08 minutes


Properties will be evaluated at   0.000000,   0.000000,   0.000000 Bohr

Properties computed using the  density matrix

  Nuclear Dipole Moment: (a.u.)
     X:     0.9004      Y:     0.5048      Z:     3.3049

  Electronic Dipole Moment: (a.u.)
     X:    -1.1223      Y:    -0.6603      Z:    -2.8578

  Dipole Moment: (a.u.)
     X:    -0.2219      Y:    -0.1555      Z:     0.4471     Total:     0.5228

  Dipole Moment: (Debye)
     X:    -0.5641      Y:    -0.3953      Z:     1.1363     Total:     1.3288

  Quadrupole Moment: (Debye Ang)
    XX:   -30.7031     YY:   -32.0996     ZZ:   -34.9753
    XY:     1.5418     XZ:     0.4929     YZ:     0.4001

  Traceless Quadrupole Moment: (Debye Ang)
    XX:     1.8896     YY:     0.4930     ZZ:    -2.3826
    XY:     1.5418     XZ:     0.4929     YZ:     0.4001

  Mulliken Charges: (a.u.)
   Center  Symbol    Alpha    Beta     Spin     Total
       1     H     0.42551  0.42551  0.00000  0.14898
       2     C     3.07815  3.07815  0.00000 -0.15630
       3     O     4.30739  4.30739  0.00000 -0.61479
       4     H     0.41541  0.41541  0.00000  0.16918
       5     H     0.43125  0.43125  0.00000  0.13749
       6     C     2.98236  2.98236  0.00000  0.03528
       7     C     3.15990  3.15990  0.00000 -0.31980
       8     H     0.43251  0.43251  0.00000  0.13498
       9     H     0.43383  0.43383  0.00000  0.13233
      10     C     3.24793  3.24793  0.00000 -0.49586
      11     H     0.41429  0.41429  0.00000  0.17142
      12     H     0.41430  0.41430  0.00000  0.17139
      13     H     0.42096  0.42096  0.00000  0.15809
      14     H     0.41538  0.41538  0.00000  0.16925
      15     H     0.42083  0.42083  0.00000  0.15834

   Total alpha = 21.00000, Total beta = 21.00000, Total charge = -0.00000


*** PSI4 exiting successfully. Buy a developer a beer!
