    -----------------------------------------------------------------------
          Psi4: An Open-Source Ab Initio Electronic Structure Package
                              Psi4 (no tag) Driver

                          Git: Rev {detached?}  

    J. M. Turney, A. C. Simmonett, R. M. Parrish, E. G. Hohenstein,
    F. A. Evangelista, J. T. Fermann, B. J. Mintz, L. A. Burns, J. J. Wilke,
    M. L. Abrams, N. J. Russ, M. L. Leininger, C. L. Janssen, E. T. Seidl,
    W. D. Allen, H. F. Schaefer, R. A. King, E. F. Valeev, C. D. Sherrill,
    and T. D. Crawford, WIREs Comput. Mol. Sci. 2, 556-565 (2012)
    (doi: 10.1002/wcms.93)

                         Additional Contributions by
    A. E. DePrince, M. Saitow, U. Bozkaya, A. Yu. Sokolov
    -----------------------------------------------------------------------


    Psi4 started on: Tue Jul  5 16:37:05 2016

    Process ID:  18038
    PSI4DATADIR: /export131/home/mjharvey/miniconda3/share
    Memory level set to 256.000 MB

  ==> Input File <==

--------------------------------------------------------------------------
set {
	reference rhf
	basis 6-31G*
}


set_num_threads( 1 )
memory 2 gb

molecule MOL {
0 1

O	 -1.487915	 1.240997	 -0.102872
C	 -1.083404	 0.139676	 0.115185
C	 0.323172	 -0.082835	 0.642890
C	 -1.933144	 -1.084513	 -0.143914
C	 1.355500	 -0.005236	 -0.493139
H	 0.396124	 -1.044539	 1.143135
H	 0.528510	 0.693688	 1.371665
C	 2.786041	 -0.195496	 0.007461
H	 1.132680	 -0.760196	 -1.243911
H	 1.259483	 0.958614	 -0.981927
H	 3.495434	 -0.130605	 -0.811222
H	 2.912569	 -1.165287	 0.480029
H	 3.049157	 0.565611	 0.735838
H	 -1.394012	 -1.806339	 -0.750521
H	 -2.850450	 -0.799780	 -0.640112
H	 -2.169131	 -1.571050	 0.798846

	symmetry c1
}
ee = energy('scf')
oeprop('DIPOLE', 'QUADRUPOLE', 'MULLIKEN_CHARGES')
oeprop('GRID_ESP')
f=open( 'psi4out.xyz', 'w' )
f.write( "16  " )
f.write( str(ee) + "\n" )
f.write( MOL.save_string_xyz() )
f.close()
--------------------------------------------------------------------------

  Memory set to   2.000 GiB by Python script.

*** tstart() called on cx1-3-15-3.cx1.hpc.ic.ac.uk
*** at Tue Jul  5 16:37:06 2016


         ---------------------------------------------------------
                                   SCF
            by Justin Turney, Rob Parrish, and Andy Simmonett
                              RHF Reference
                        1 Threads,   2000 MiB Core
         ---------------------------------------------------------

  ==> Geometry <==

    Molecular point group: c1
    Full point group: C1

    Geometry (in Angstrom), charge = 0, multiplicity = 1:

       Center              X                  Y                   Z               Mass       
    ------------   -----------------  -----------------  -----------------  -----------------
           O         -1.487787674208     1.240888762881    -0.102860194788    15.994914619560
           C         -1.083276674208     0.139567762881     0.115196805212    12.000000000000
           C          0.323299325792    -0.082943237119     0.642901805212    12.000000000000
           C         -1.933016674208    -1.084621237119    -0.143902194788    12.000000000000
           C          1.355627325792    -0.005344237119    -0.493127194788    12.000000000000
           H          0.396251325792    -1.044647237119     1.143146805212     1.007825032070
           H          0.528637325792     0.693579762881     1.371676805212     1.007825032070
           C          2.786168325792    -0.195604237119     0.007472805212    12.000000000000
           H          1.132807325792    -0.760304237119    -1.243899194788     1.007825032070
           H          1.259610325792     0.958505762881    -0.981915194788     1.007825032070
           H          3.495561325792    -0.130713237119    -0.811210194788     1.007825032070
           H          2.912696325792    -1.165395237119     0.480040805212     1.007825032070
           H          3.049284325792     0.565502762881     0.735849805212     1.007825032070
           H         -1.393884674208    -1.806447237119    -0.750509194788     1.007825032070
           H         -2.850322674208    -0.799888237119    -0.640100194788     1.007825032070
           H         -2.169003674208    -1.571158237119     0.798857805212     1.007825032070

  Running in c1 symmetry.

  Rotational constants: A =      0.24866  B =      0.06092  C =      0.05438 [cm^-1]
  Rotational constants: A =   7454.74192  B =   1826.32896  C =   1630.31567 [MHz]
  Nuclear repulsion =  237.018131170094364

  Charge       = 0
  Multiplicity = 1
  Electrons    = 48
  Nalpha       = 24
  Nbeta        = 24

  ==> Algorithm <==

  SCF Algorithm Type is DF.
  DIIS enabled.
  MOM disabled.
  Fractional occupation disabled.
  Guess Type is CORE.
  Energy threshold   = 1.00e-06
  Density threshold  = 1.00e-06
  Integral threshold = 0.00e+00

  ==> Primary Basis <==

  Basis Set: 6-31G*
    Number of shells: 56
    Number of basis function: 110
    Number of Cartesian functions: 110
    Spherical Harmonics?: false
    Max angular momentum: 2

  ==> Pre-Iterations <==

   -------------------------------------------------------
    Irrep   Nso     Nmo     Nalpha   Nbeta   Ndocc  Nsocc
   -------------------------------------------------------
     A        110     110       0       0       0       0
   -------------------------------------------------------
    Total     110     110      24      24      24       0
   -------------------------------------------------------

 OEINTS: Overlap, kinetic, potential, dipole, and quadrupole integrals
         stored in file 35.

  ==> Integral Setup <==

  ==> DFJK: Density-Fitted J/K Matrices <==

    J tasked:                  Yes
    K tasked:                  Yes
    wK tasked:                  No
    OpenMP threads:              1
    Integrals threads:           1
    Memory (MB):              1430
    Algorithm:                Core
    Integral Cache:           NONE
    Schwarz Cutoff:          1E-12
    Fitting Condition:       1E-12

   => Auxiliary Basis Set <=

  Basis Set: 
    Number of shells: 234
    Number of basis function: 736
    Number of Cartesian functions: 736
    Spherical Harmonics?: false
    Max angular momentum: 3

  Minimum eigenvalue in the overlap matrix is 3.6548747663E-03.
  Using Symmetric Orthogonalization.
  SCF Guess: Core (One-Electron) Hamiltonian.

  ==> Iterations <==

                           Total Energy        Delta E     RMS |[F,P]|

   @DF-RHF iter   1:  -201.62800108631870   -2.01628e+02   8.22130e-02 
   @DF-RHF iter   2:  -159.65815710253668    4.19698e+01   6.77436e-02 DIIS
   @DF-RHF iter   3:  -230.90485070303328   -7.12467e+01   5.07118e-02 DIIS
   @DF-RHF iter   4:  -241.35754479741018   -1.04527e+01   5.61289e-02 DIIS
   @DF-RHF iter   5:  -267.15850152688893   -2.58010e+01   1.56946e-02 DIIS
   @DF-RHF iter   6:  -269.90811102425067   -2.74961e+00   4.16162e-03 DIIS
   @DF-RHF iter   7:  -270.01236041953399   -1.04249e-01   1.71681e-03 DIIS
   @DF-RHF iter   8:  -270.02710068743181   -1.47403e-02   6.58167e-04 DIIS
   @DF-RHF iter   9:  -270.02977352117563   -2.67283e-03   2.54572e-04 DIIS
   @DF-RHF iter  10:  -270.03028944423221   -5.15923e-04   7.76442e-05 DIIS
   @DF-RHF iter  11:  -270.03036449010636   -7.50459e-05   2.61621e-05 DIIS
   @DF-RHF iter  12:  -270.03037351399252   -9.02389e-06   7.92902e-06 DIIS
   @DF-RHF iter  13:  -270.03037464471214   -1.13072e-06   2.94986e-06 DIIS
   @DF-RHF iter  14:  -270.03037480411336   -1.59401e-07   8.62464e-07 DIIS

  ==> Post-Iterations <==

    Orbital Energies (a.u.)
    -----------------------

    Doubly Occupied:                                                      

       1A    -20.548014     2A    -11.325032     3A    -11.232927  
       4A    -11.229945     5A    -11.228667     6A    -11.219195  
       7A     -1.393760     8A     -1.082207     9A     -1.013310  
      10A     -0.949438    11A     -0.828724    12A     -0.735276  
      13A     -0.659475    14A     -0.648315    15A     -0.611560  
      16A     -0.607276    17A     -0.575742    18A     -0.558920  
      19A     -0.538233    20A     -0.517302    21A     -0.502851  
      22A     -0.484092    23A     -0.471245    24A     -0.398201  

    Virtual:                                                              

      25A      0.168115    26A      0.220960    27A      0.250815  
      28A      0.280349    29A      0.287282    30A      0.298153  
      31A      0.311387    32A      0.322509    33A      0.332296  
      34A      0.339212    35A      0.355082    36A      0.390912  
      37A      0.417087    38A      0.430459    39A      0.487795  
      40A      0.509166    41A      0.712057    42A      0.728321  
      43A      0.741188    44A      0.754344    45A      0.770185  
      46A      0.795258    47A      0.830333    48A      0.874584  
      49A      0.886370    50A      0.938523    51A      0.961708  
      52A      0.985951    53A      1.013087    54A      1.064761  
      55A      1.085897    56A      1.103274    57A      1.126111  
      58A      1.134033    59A      1.155562    60A      1.172828  
      61A      1.188889    62A      1.199306    63A      1.201965  
      64A      1.220772    65A      1.236442    66A      1.261859  
      67A      1.340573    68A      1.371268    69A      1.387471  
      70A      1.448852    71A      1.498152    72A      1.661417  
      73A      1.672687    74A      1.717870    75A      1.802581  
      76A      1.852585    77A      1.906328    78A      2.022065  
      79A      2.074780    80A      2.095759    81A      2.149642  
      82A      2.163166    83A      2.180807    84A      2.224216  
      85A      2.240166    86A      2.281864    87A      2.319425  
      88A      2.346956    89A      2.426117    90A      2.504380  
      91A      2.525250    92A      2.574349    93A      2.647324  
      94A      2.674923    95A      2.701885    96A      2.732957  
      97A      2.766770    98A      2.829556    99A      2.957449  
     100A      2.989581   101A      3.070187   102A      3.125282  
     103A      3.374989   104A      3.376750   105A      4.455752  
     106A      4.529753   107A      4.615280   108A      4.744652  
     109A      4.863725   110A      4.989584  

    Final Occupation by Irrep:
              A 
    DOCC [    24 ]

  Energy converged.

  @DF-RHF Final Energy:  -270.03037480411336

   => Energetics <=

    Nuclear Repulsion Energy =            237.0181311700943638
    One-Electron Energy =                -835.3777429917000745
    Two-Electron Energy =                 328.3292370174920620
    DFT Exchange-Correlation Energy =       0.0000000000000000
    Empirical Dispersion Energy =           0.0000000000000000
    PCM Polarization Energy =               0.0000000000000000
    EFP Energy =                            0.0000000000000000
    Total Energy =                       -270.0303748041137055

    Alert: EFP and PCM quantities not currently incorporated into SCF psivars.

Properties will be evaluated at   0.000000,   0.000000,   0.000000 Bohr
  ==> Properties <==


Properties computed using the SCF density matrix

  Nuclear Dipole Moment: (a.u.)
     X:     5.9567      Y:    -4.7385      Z:     0.0951

  Electronic Dipole Moment: (a.u.)
     X:    -5.4489      Y:     3.6661      Z:     0.0788

  Dipole Moment: (a.u.)
     X:     0.5078      Y:    -1.0724      Z:     0.1738     Total:     1.1993

  Dipole Moment: (Debye)
     X:     1.2908      Y:    -2.7258      Z:     0.4418     Total:     3.0482


  Saving occupied orbitals to File 180.

*** tstop() called on cx1-3-15-3.cx1.hpc.ic.ac.uk at Tue Jul  5 16:37:14 2016
Module time:
	user time   =       7.63 seconds =       0.13 minutes
	system time =       0.04 seconds =       0.00 minutes
	total time  =          8 seconds =       0.13 minutes
Total time:
	user time   =       7.63 seconds =       0.13 minutes
	system time =       0.04 seconds =       0.00 minutes
	total time  =          8 seconds =       0.13 minutes


Properties will be evaluated at   0.000000,   0.000000,   0.000000 Bohr

Properties computed using the  density matrix

  Nuclear Dipole Moment: (a.u.)
     X:     5.9567      Y:    -4.7385      Z:     0.0951

  Electronic Dipole Moment: (a.u.)
     X:    -5.4489      Y:     3.6661      Z:     0.0788

  Dipole Moment: (a.u.)
     X:     0.5078      Y:    -1.0724      Z:     0.1738     Total:     1.1993

  Dipole Moment: (Debye)
     X:     1.2908      Y:    -2.7258      Z:     0.4418     Total:     3.0482

  Quadrupole Moment: (Debye Ang)
    XX:   -39.7691     YY:   -41.3010     ZZ:   -37.5250
    XY:     4.8960     XZ:    -0.8211     YZ:     0.4978

  Traceless Quadrupole Moment: (Debye Ang)
    XX:    -0.2374     YY:    -1.7693     ZZ:     2.0066
    XY:     4.8960     XZ:    -0.8211     YZ:     0.4978

  Mulliken Charges: (a.u.)
   Center  Symbol    Alpha    Beta     Spin     Total
       1     O     4.26195  4.26195  0.00000 -0.52389
       2     C     2.73755  2.73755  0.00000  0.52489
       3     C     3.19893  3.19893  0.00000 -0.39786
       4     C     3.28954  3.28954  0.00000 -0.57907
       5     C     3.16137  3.16137  0.00000 -0.32274
       6     H     0.41712  0.41712  0.00000  0.16577
       7     H     0.40122  0.40122  0.00000  0.19756
       8     C     3.23974  3.23974  0.00000 -0.47947
       9     H     0.41997  0.41997  0.00000  0.16007
      10     H     0.40519  0.40519  0.00000  0.18962
      11     H     0.41542  0.41542  0.00000  0.16916
      12     H     0.42088  0.42088  0.00000  0.15824
      13     H     0.41765  0.41765  0.00000  0.16470
      14     H     0.40979  0.40979  0.00000  0.18042
      15     H     0.39695  0.39695  0.00000  0.20610
      16     H     0.40674  0.40674  0.00000  0.18651

   Total alpha = 24.00000, Total beta = 24.00000, Total charge = -0.00000



Properties will be evaluated at   0.000000,   0.000000,   0.000000 Bohr

Properties computed using the  density matrix


 Electrostatic potential computed on the grid and written to grid_esp.dat

*** PSI4 exiting successfully. Buy a developer a beer!
