
    -----------------------------------------------------------------------
          Psi4: An Open-Source Ab Initio Electronic Structure Package
                               Psi4 1.1 release

                         Git: Rev {HEAD} add49b9 


    R. M. Parrish, L. A. Burns, D. G. A. Smith, A. C. Simmonett,
    A. E. DePrince III, E. G. Hohenstein, U. Bozkaya, A. Yu. Sokolov,
    R. Di Remigio, R. M. Richard, J. F. Gonthier, A. M. James,
    H. R. McAlexander, A. Kumar, M. Saitow, X. Wang, B. P. Pritchard,
    P. Verma, H. F. Schaefer III, K. Patkowski, R. A. King, E. F. Valeev,
    F. A. Evangelista, J. M. Turney, T. D. Crawford, and C. D. Sherrill,
    J. Chem. Theory Comput. in press (2017).
    (doi: 10.1021/acs.jctc.7b00174)

    -----------------------------------------------------------------------


    Psi4 started on: Friday, 11 August 2017 01:53PM

    Process ID:   5225
    PSIDATADIR: /home/raimis/opt/miniconda3/envs/htmd/share/psi4
    Memory:     500.0 MiB
    Threads:    1
    
  ==> Input File <==

--------------------------------------------------------------------------
set {
	reference rks
	basis cc-pvdz
}


set_num_threads( 8 )
memory 2 gb

molecule MOL {
0 1

O	 1.014300	 -0.002300	 0.060500
O	 2.462400	 -0.107500	 -0.002400
H	 0.917204	 0.639993	 -0.668220
H	 2.655500	 0.713700	 0.488700

	symmetry c1
}
set optking { dynamic_level = 1 }
set optking {
	frozen_dihedral = ("
		3 1 2 4
	")
}

ee,wfn = energy('b3lyp-d3', return_wfn=True)
oeprop( wfn, 'DIPOLE', 'QUADRUPOLE', 'MULLIKEN_CHARGES')
f=open( 'psi4out.xyz', 'w' )
f.write( "4  " )
f.write( str(ee) + "\n" )
f.write( MOL.save_string_xyz() )
f.close()
--------------------------------------------------------------------------
  Threads set to 8 by Python driver.

  Memory set to   1.863 GiB by Python driver.

*** tstart() called on computer03
*** at Fri Aug 11 13:53:53 2017

   => Loading Basis Set <=

    Name: CC-PVDZ
    Role: ORBITAL
    Keyword: BASIS
    atoms 1-2 entry O          line   190 file /home/raimis/opt/miniconda3/envs/htmd/share/psi4/basis/cc-pvdz.gbs 
    atoms 3-4 entry H          line    20 file /home/raimis/opt/miniconda3/envs/htmd/share/psi4/basis/cc-pvdz.gbs 


         ---------------------------------------------------------
                                   SCF
            by Justin Turney, Rob Parrish, and Andy Simmonett
                              RKS Reference
                        8 Threads,   1907 MiB Core
         ---------------------------------------------------------

  ==> Geometry <==

    Molecular point group: c1
    Full point group: C1

    Geometry (in Angstrom), charge = 0, multiplicity = 1:

       Center              X                  Y                   Z               Mass       
    ------------   -----------------  -----------------  -----------------  -----------------
           O         -0.726895283653     0.009226258183     0.038492376377    15.994914619560
           O          0.721204716347    -0.095973741817    -0.024407623623    15.994914619560
           H         -0.823991283653     0.651519258183    -0.690227623623     1.007825032070
           H          0.914304716347     0.725226258183     0.466692376377     1.007825032070

  Running in c1 symmetry.

  Rotational constants: A =      9.54255  B =      0.88303  C =      0.86819 [cm^-1]
  Rotational constants: A = 286078.54348  B =  26472.61864  C =  26027.72175 [MHz]
  Nuclear repulsion =   36.829659389588187

  Charge       = 0
  Multiplicity = 1
  Electrons    = 18
  Nalpha       = 9
  Nbeta        = 9

  ==> Algorithm <==

  SCF Algorithm Type is DF.
  DIIS enabled.
  MOM disabled.
  Fractional occupation disabled.
  Guess Type is SAD.
  Energy threshold   = 1.00e-06
  Density threshold  = 1.00e-06
  Integral threshold = 0.00e+00

  ==> Primary Basis <==

  Basis Set: CC-PVDZ
    Blend: CC-PVDZ
    Number of shells: 18
    Number of basis function: 38
    Number of Cartesian functions: 40
    Spherical Harmonics?: true
    Max angular momentum: 2

  ==> DFT Potential <==

   => B3LYP Composite Functional <= 

    B3LYP Hybrid-GGA Exchange-Correlation Functional (VWN1-RPA)

    P.J. Stephens et. al., J. Phys. Chem., 98, 11623-11627, 1994

    Points   =           5000
    Deriv    =              1
    GGA      =           TRUE
    Meta     =          FALSE

    X_LRC        =          FALSE
    X_Hybrid     =           TRUE
    X_Alpha      =   2.000000E-01
    X_Omega      =   0.000000E+00
    C_LRC        =          FALSE
    C_Hybrid     =          FALSE
    C_Alpha      =   0.000000E+00
    C_Omega      =   0.000000E+00

   => Exchange Functionals <=

    0.8000    B3_X
    0.2000      HF 

   => Correlation Functionals <=

    0.1900 VWN3RPA_C
    0.8100   LYP_C

   => Molecular Quadrature <=

    Radial Scheme    =       TREUTLER
    Pruning Scheme   =           FLAT
    Nuclear Scheme   =       TREUTLER

    BS radius alpha  =              1
    Pruning alpha    =              1
    Radial Points    =             75
    Spherical Points =            302
    Total Points     =          88300
    Total Blocks     =             88
    Max Points       =           4997
    Max Functions    =             38

   => -D3ZERO: Empirical Dispersion <=

    Grimme's -D3 (zero-damping) Dispersion Correction
    Grimme S.; Antony J.; Ehrlich S.; Krieg H. (2010), J. Chem. Phys., 132: 154104

        S6 =   1.000000E+00
        S8 =   1.703000E+00
       SR6 =   1.261000E+00
    ALPHA6 =   1.400000E+01

   => Loading Basis Set <=

    Name: (CC-PVDZ AUX)
    Role: JKFIT
    Keyword: DF_BASIS_SCF
    atoms 1-2 entry O          line   220 file /home/raimis/opt/miniconda3/envs/htmd/share/psi4/basis/cc-pvdz-jkfit.gbs 
    atoms 3-4 entry H          line    50 file /home/raimis/opt/miniconda3/envs/htmd/share/psi4/basis/cc-pvdz-jkfit.gbs 

  ==> Pre-Iterations <==

   -------------------------------------------------------
    Irrep   Nso     Nmo     Nalpha   Nbeta   Ndocc  Nsocc
   -------------------------------------------------------
     A         38      38       0       0       0       0
   -------------------------------------------------------
    Total      38      38       9       9       9       0
   -------------------------------------------------------

  ==> Integral Setup <==

  ==> DFJK: Density-Fitted J/K Matrices <==

    J tasked:                  Yes
    K tasked:                  Yes
    wK tasked:                  No
    OpenMP threads:              8
    Integrals threads:           8
    Memory (MB):              1430
    Algorithm:                Core
    Integral Cache:           NONE
    Schwarz Cutoff:          1E-12
    Fitting Condition:       1E-12

   => Auxiliary Basis Set <=

  Basis Set: (CC-PVDZ AUX)
    Blend: CC-PVDZ-JKFIT
    Number of shells: 66
    Number of basis function: 186
    Number of Cartesian functions: 212
    Spherical Harmonics?: true
    Max angular momentum: 3

  Minimum eigenvalue in the overlap matrix is 2.5948637431E-02.
  Using Symmetric Orthogonalization.

  SCF Guess: Superposition of Atomic Densities via on-the-fly atomic UHF.

  ==> Iterations <==

                           Total Energy        Delta E     RMS |[F,P]|

   @DF-RKS iter   0:  -151.76212575893007   -1.51762e+02   1.02203e-01 
   @DF-RKS iter   1:  -151.52703657060007    2.35089e-01   8.91595e-03 
   @DF-RKS iter   2:  -151.53973833933668   -1.27018e-02   7.46147e-03 DIIS
   @DF-RKS iter   3:  -151.54662810948193   -6.88977e-03   1.51083e-03 DIIS
   @DF-RKS iter   4:  -151.54733915504559   -7.11046e-04   3.16248e-04 DIIS
   @DF-RKS iter   5:  -151.54734739695613   -8.24191e-06   1.78731e-04 DIIS
   @DF-RKS iter   6:  -151.54735308714967   -5.69019e-06   1.22814e-05 DIIS
   @DF-RKS iter   7:  -151.54735312464447   -3.74948e-08   1.36559e-06 DIIS
   @DF-RKS iter   8:  -151.54735312528638   -6.41904e-10   2.03503e-07 DIIS

  ==> Post-Iterations <==

    Orbital Energies (a.u.)
    -----------------------

    Doubly Occupied:                                                      

       1A    -19.190357     2A    -19.190317     3A     -1.116173  
       4A     -0.886923     5A     -0.532663     6A     -0.466487  
       7A     -0.421884     8A     -0.300987     9A     -0.282566  

    Virtual:                                                              

      10A      0.022831    11A      0.039249    12A      0.107817  
      13A      0.573990    14A      0.577777    15A      0.853343  
      16A      0.872968    17A      0.914683    18A      0.924123  
      19A      1.012335    20A      1.041903    21A      1.232776  
      22A      1.283644    23A      1.331606    24A      1.405031  
      25A      1.675792    26A      1.705324    27A      2.057043  
      28A      2.076078    29A      2.409651    30A      2.464047  
      31A      2.546936    32A      2.862574    33A      2.933564  
      34A      3.083311    35A      3.087156    36A      3.455820  
      37A      3.571540    38A      3.819873  

    Final Occupation by Irrep:
              A 
    DOCC [     9 ]

  Energy converged.

  @DF-RKS Final Energy:  -151.54735312528638

   => Energetics <=

    Nuclear Repulsion Energy =             36.8296593895881870
    One-Electron Energy =                -281.5935609360496414
    Two-Electron Energy =                 107.6783148488939617
    DFT Exchange-Correlation Energy =     -14.4615200577188823
    Empirical Dispersion Energy =          -0.0002463700000000
    PCM Polarization Energy =               0.0000000000000000
    EFP Energy =                            0.0000000000000000
    Total Energy =                       -151.5473531252863779



Properties will be evaluated at   0.000000,   0.000000,   0.000000 Bohr

Properties computed using the SCF density matrix

  Nuclear Dipole Moment: (a.u.)
     X:     0.0846      Y:     1.2902      Z:    -0.2095

  Electronic Dipole Moment: (a.u.)
     X:    -0.0214      Y:    -0.3259      Z:     0.0529

  Dipole Moment: (a.u.)
     X:     0.0633      Y:     0.9644      Z:    -0.1566     Total:     0.9790

  Dipole Moment: (Debye)
     X:     0.1608      Y:     2.4512      Z:    -0.3979     Total:     2.4885


*** tstop() called on computer03 at Fri Aug 11 13:53:57 2017
Module time:
	user time   =      16.30 seconds =       0.27 minutes
	system time =       0.55 seconds =       0.01 minutes
	total time  =          4 seconds =       0.07 minutes
Total time:
	user time   =      16.30 seconds =       0.27 minutes
	system time =       0.55 seconds =       0.01 minutes
	total time  =          4 seconds =       0.07 minutes


Properties will be evaluated at   0.000000,   0.000000,   0.000000 Bohr

Properties computed using the  density matrix

  Nuclear Dipole Moment: (a.u.)
     X:     0.0846      Y:     1.2902      Z:    -0.2095

  Electronic Dipole Moment: (a.u.)
     X:    -0.0214      Y:    -0.3259      Z:     0.0529

  Dipole Moment: (a.u.)
     X:     0.0633      Y:     0.9644      Z:    -0.1566     Total:     0.9790

  Dipole Moment: (Debye)
     X:     0.1608      Y:     2.4512      Z:    -0.3979     Total:     2.4885

  Quadrupole Moment: (Debye Ang)
    XX:   -11.1302     YY:   -10.0523     ZZ:   -10.6634
    XY:     0.3957     XZ:     1.9757     YZ:    -0.2395

  Traceless Quadrupole Moment: (Debye Ang)
    XX:    -0.5149     YY:     0.5630     ZZ:    -0.0481
    XY:     0.3957     XZ:     1.9757     YZ:    -0.2395

  Mulliken Charges: (a.u.)
   Center  Symbol    Alpha    Beta     Spin     Total
       1     O     4.08687  4.08687  0.00000 -0.17375
       2     O     4.08685  4.08685  0.00000 -0.17371
       3     H     0.41313  0.41313  0.00000  0.17375
       4     H     0.41315  0.41315  0.00000  0.17371

   Total alpha =  9.00000, Total beta =  9.00000, Total charge =  0.00000


*** Psi4 exiting successfully. Buy a developer a beer!
